1.57330000e+01 0.00000000e+00 0.00000000e+00 0.00000000e+00 1.49460000e+01 0.00000000e+00 0.00000000e+00 0.00000000e+00 9.06200000e+00
1.55690000e+01 0.00000000e+00 0.00000000e+00 0.00000000e+00 1.50750000e+01 0.00000000e+00 0.00000000e+00 0.00000000e+00 9.02100000e+00
1.57720000e+01 0.00000000e+00 0.00000000e+00 0.00000000e+00 1.49750000e+01 0.00000000e+00 0.00000000e+00 0.00000000e+00 9.01100000e+00
1.57300000e+01 0.00000000e+00 0.00000000e+00 0.00000000e+00 1.50380000e+01 0.00000000e+00 0.00000000e+00 0.00000000e+00 8.96000000e+00
1.53840000e+01 0.00000000e+00 0.00000000e+00 0.00000000e+00 1.50660000e+01 0.00000000e+00 0.00000000e+00 0.00000000e+00 9.22000000e+00
1.55690000e+01 0.00000000e+00 0.00000000e+00 0.00000000e+00 1.50750000e+01 0.00000000e+00 0.00000000e+00 0.00000000e+00 9.02100000e+00
1.57720000e+01 0.00000000e+00 0.00000000e+00 0.00000000e+00 1.49750000e+01 0.00000000e+00 0.00000000e+00 0.00000000e+00 9.01100000e+00
1.55190000e+01 0.00000000e+00 0.00000000e+00 0.00000000e+00 1.48320000e+01 0.00000000e+00 0.00000000e+00 0.00000000e+00 9.10500000e+00
1.57790000e+01 0.00000000e+00 0.00000000e+00 0.00000000e+00 1.48930000e+01 0.00000000e+00 0.00000000e+00 0.00000000e+00 9.14100000e+00
1.54940000e+01 0.00000000e+00 0.00000000e+00 0.00000000e+00 1.48580000e+01 0.00000000e+00 0.00000000e+00 0.00000000e+00 9.07100000e+00
1.56900000e+01 0.00000000e+00 0.00000000e+00 0.00000000e+00 1.48700000e+01 0.00000000e+00 0.00000000e+00 0.00000000e+00 9.11500000e+00
1.57720000e+01 0.00000000e+00 0.00000000e+00 0.00000000e+00 1.49750000e+01 0.00000000e+00 0.00000000e+00 0.00000000e+00 9.01100000e+00
1.54680000e+01 0.00000000e+00 0.00000000e+00 0.00000000e+00 1.51820000e+01 0.00000000e+00 0.00000000e+00 0.00000000e+00 9.09600000e+00
1.54870000e+01 0.00000000e+00 0.00000000e+00 0.00000000e+00 1.51140000e+01 0.00000000e+00 0.00000000e+00 0.00000000e+00 9.14900000e+00
1.58040000e+01 0.00000000e+00 0.00000000e+00 0.00000000e+00 1.49400000e+01 0.00000000e+00 0.00000000e+00 0.00000000e+00 9.01500000e+00
1.53840000e+01 0.00000000e+00 0.00000000e+00 0.00000000e+00 1.50660000e+01 0.00000000e+00 0.00000000e+00 0.00000000e+00 9.22000000e+00
1.57210000e+01 0.00000000e+00 0.00000000e+00 0.00000000e+00 1.50700000e+01 0.00000000e+00 0.00000000e+00 0.00000000e+00 9.00300000e+00
1.54680000e+01 0.00000000e+00 0.00000000e+00 0.00000000e+00 1.51820000e+01 0.00000000e+00 0.00000000e+00 0.00000000e+00 9.09600000e+00
1.53840000e+01 0.00000000e+00 0.00000000e+00 0.00000000e+00 1.50660000e+01 0.00000000e+00 0.00000000e+00 0.00000000e+00 9.22000000e+00
1.56690000e+01 0.00000000e+00 0.00000000e+00 0.00000000e+00 1.47620000e+01 0.00000000e+00 0.00000000e+00 0.00000000e+00 9.03100000e+00
1.57130000e+01 0.00000000e+00 0.00000000e+00 0.00000000e+00 1.48320000e+01 0.00000000e+00 0.00000000e+00 0.00000000e+00 9.11000000e+00
1.53840000e+01 0.00000000e+00 0.00000000e+00 0.00000000e+00 1.50660000e+01 0.00000000e+00 0.00000000e+00 0.00000000e+00 9.22000000e+00
1.53840000e+01 0.00000000e+00 0.00000000e+00 0.00000000e+00 1.50660000e+01 0.00000000e+00 0.00000000e+00 0.00000000e+00 9.22000000e+00
1.57300000e+01 0.00000000e+00 0.00000000e+00 0.00000000e+00 1.50380000e+01 0.00000000e+00 0.00000000e+00 0.00000000e+00 8.96000000e+00
1.57530000e+01 0.00000000e+00 0.00000000e+00 0.00000000e+00 1.48210000e+01 0.00000000e+00 0.00000000e+00 0.00000000e+00 9.08900000e+00
1.54170000e+01 0.00000000e+00 0.00000000e+00 0.00000000e+00 1.48810000e+01 0.00000000e+00 0.00000000e+00 0.00000000e+00 9.06000000e+00
1.57230000e+01 0.00000000e+00 0.00000000e+00 0.00000000e+00 1.50200000e+01 0.00000000e+00 0.00000000e+00 0.00000000e+00 9.02600000e+00
1.53930000e+01 0.00000000e+00 0.00000000e+00 0.00000000e+00 1.52250000e+01 0.00000000e+00 0.00000000e+00 0.00000000e+00 9.21600000e+00
1.58130000e+01 0.00000000e+00 0.00000000e+00 0.00000000e+00 1.47590000e+01 0.00000000e+00 0.00000000e+00 0.00000000e+00 9.14500000e+00
1.56710000e+01 0.00000000e+00 0.00000000e+00 0.00000000e+00 1.48880000e+01 0.00000000e+00 0.00000000e+00 0.00000000e+00 9.12300000e+00
1.57390000e+01 0.00000000e+00 0.00000000e+00 0.00000000e+00 1.50120000e+01 0.00000000e+00 0.00000000e+00 0.00000000e+00 8.96900000e+00
1.57330000e+01 0.00000000e+00 0.00000000e+00 0.00000000e+00 1.48440000e+01 0.00000000e+00 0.00000000e+00 0.00000000e+00 9.15900000e+00
1.57680000e+01 0.00000000e+00 0.00000000e+00 0.00000000e+00 1.49760000e+01 0.00000000e+00 0.00000000e+00 0.00000000e+00 9.10900000e+00
1.56470000e+01 0.00000000e+00 0.00000000e+00 0.00000000e+00 1.50310000e+01 0.00000000e+00 0.00000000e+00 0.00000000e+00 9.19800000e+00
1.58130000e+01 0.00000000e+00 0.00000000e+00 0.00000000e+00 1.47590000e+01 0.00000000e+00 0.00000000e+00 0.00000000e+00 9.14500000e+00
1.55040000e+01 0.00000000e+00 0.00000000e+00 0.00000000e+00 1.51670000e+01 0.00000000e+00 0.00000000e+00 0.00000000e+00 9.10200000e+00
1.58300000e+01 0.00000000e+00 0.00000000e+00 0.00000000e+00 1.48070000e+01 0.00000000e+00 0.00000000e+00 0.00000000e+00 9.07800000e+00
1.55040000e+01 0.00000000e+00 0.00000000e+00 0.00000000e+00 1.51670000e+01 0.00000000e+00 0.00000000e+00 0.00000000e+00 9.10200000e+00
1.57230000e+01 0.00000000e+00 0.00000000e+00 0.00000000e+00 1.50200000e+01 0.00000000e+00 0.00000000e+00 0.00000000e+00 9.02600000e+00
1.57230000e+01 0.00000000e+00 0.00000000e+00 0.00000000e+00 1.50200000e+01 0.00000000e+00 0.00000000e+00 0.00000000e+00 9.02600000e+00
1.56990000e+01 0.00000000e+00 0.00000000e+00 0.00000000e+00 1.50100000e+01 0.00000000e+00 0.00000000e+00 0.00000000e+00 8.91400000e+00
1.58130000e+01 0.00000000e+00 0.00000000e+00 0.00000000e+00 1.47590000e+01 0.00000000e+00 0.00000000e+00 0.00000000e+00 9.14500000e+00
1.56470000e+01 0.00000000e+00 0.00000000e+00 0.00000000e+00 1.50310000e+01 0.00000000e+00 0.00000000e+00 0.00000000e+00 9.19800000e+00
1.57270000e+01 0.00000000e+00 0.00000000e+00 0.00000000e+00 1.49650000e+01 0.00000000e+00 0.00000000e+00 0.00000000e+00 9.08600000e+00
1.53930000e+01 0.00000000e+00 0.00000000e+00 0.00000000e+00 1.52250000e+01 0.00000000e+00 0.00000000e+00 0.00000000e+00 9.21600000e+00
1.56060000e+01 0.00000000e+00 0.00000000e+00 0.00000000e+00 1.49590000e+01 0.00000000e+00 0.00000000e+00 0.00000000e+00 9.04200000e+00
1.57750000e+01 0.00000000e+00 0.00000000e+00 0.00000000e+00 1.49000000e+01 0.00000000e+00 0.00000000e+00 0.00000000e+00 8.97400000e+00
1.57390000e+01 0.00000000e+00 0.00000000e+00 0.00000000e+00 1.50120000e+01 0.00000000e+00 0.00000000e+00 0.00000000e+00 8.96900000e+00
1.53930000e+01 0.00000000e+00 0.00000000e+00 0.00000000e+00 1.52250000e+01 0.00000000e+00 0.00000000e+00 0.00000000e+00 9.21600000e+00
1.58340000e+01 0.00000000e+00 0.00000000e+00 0.00000000e+00 1.50300000e+01 0.00000000e+00 0.00000000e+00 0.00000000e+00 9.02600000e+00
1.55420000e+01 0.00000000e+00 0.00000000e+00 0.00000000e+00 1.48700000e+01 0.00000000e+00 0.00000000e+00 0.00000000e+00 9.16900000e+00
1.59060000e+01 0.00000000e+00 0.00000000e+00 0.00000000e+00 1.51540000e+01 0.00000000e+00 0.00000000e+00 0.00000000e+00 8.92400000e+00
1.54520000e+01 0.00000000e+00 0.00000000e+00 0.00000000e+00 1.51600000e+01 0.00000000e+00 0.00000000e+00 0.00000000e+00 9.18200000e+00
1.53750000e+01 0.00000000e+00 0.00000000e+00 0.00000000e+00 1.52850000e+01 0.00000000e+00 0.00000000e+00 0.00000000e+00 9.13400000e+00
1.54210000e+01 0.00000000e+00 0.00000000e+00 0.00000000e+00 1.48390000e+01 0.00000000e+00 0.00000000e+00 0.00000000e+00 9.09400000e+00
1.58460000e+01 0.00000000e+00 0.00000000e+00 0.00000000e+00 1.51190000e+01 0.00000000e+00 0.00000000e+00 0.00000000e+00 9.04400000e+00
1.58990000e+01 0.00000000e+00 0.00000000e+00 0.00000000e+00 1.49610000e+01 0.00000000e+00 0.00000000e+00 0.00000000e+00 8.98400000e+00
1.57650000e+01 0.00000000e+00 0.00000000e+00 0.00000000e+00 1.50990000e+01 0.00000000e+00 0.00000000e+00 0.00000000e+00 8.97800000e+00
1.55800000e+01 0.00000000e+00 0.00000000e+00 0.00000000e+00 1.48610000e+01 0.00000000e+00 0.00000000e+00 0.00000000e+00 9.12600000e+00
1.57650000e+01 0.00000000e+00 0.00000000e+00 0.00000000e+00 1.50990000e+01 0.00000000e+00 0.00000000e+00 0.00000000e+00 8.97800000e+00
1.57360000e+01 0.00000000e+00 0.00000000e+00 0.00000000e+00 1.50660000e+01 0.00000000e+00 0.00000000e+00 0.00000000e+00 9.07700000e+00
1.58450000e+01 0.00000000e+00 0.00000000e+00 0.00000000e+00 1.48640000e+01 0.00000000e+00 0.00000000e+00 0.00000000e+00 9.06400000e+00
1.56690000e+01 0.00000000e+00 0.00000000e+00 0.00000000e+00 1.49310000e+01 0.00000000e+00 0.00000000e+00 0.00000000e+00 9.15800000e+00
1.55800000e+01 0.00000000e+00 0.00000000e+00 0.00000000e+00 1.48610000e+01 0.00000000e+00 0.00000000e+00 0.00000000e+00 9.12600000e+00
1.57360000e+01 0.00000000e+00 0.00000000e+00 0.00000000e+00 1.50660000e+01 0.00000000e+00 0.00000000e+00 0.00000000e+00 9.07700000e+00
1.58460000e+01 0.00000000e+00 0.00000000e+00 0.00000000e+00 1.51190000e+01 0.00000000e+00 0.00000000e+00 0.00000000e+00 9.04400000e+00
1.57650000e+01 0.00000000e+00 0.00000000e+00 0.00000000e+00 1.50990000e+01 0.00000000e+00 0.00000000e+00 0.00000000e+00 8.97800000e+00
1.58450000e+01 0.00000000e+00 0.00000000e+00 0.00000000e+00 1.48640000e+01 0.00000000e+00 0.00000000e+00 0.00000000e+00 9.06400000e+00
1.54210000e+01 0.00000000e+00 0.00000000e+00 0.00000000e+00 1.48390000e+01 0.00000000e+00 0.00000000e+00 0.00000000e+00 9.09400000e+00
1.57920000e+01 0.00000000e+00 0.00000000e+00 0.00000000e+00 1.49610000e+01 0.00000000e+00 0.00000000e+00 0.00000000e+00 9.31400000e+00
1.58990000e+01 0.00000000e+00 0.00000000e+00 0.00000000e+00 1.49610000e+01 0.00000000e+00 0.00000000e+00 0.00000000e+00 8.98400000e+00
1.58460000e+01 0.00000000e+00 0.00000000e+00 0.00000000e+00 1.51190000e+01 0.00000000e+00 0.00000000e+00 0.00000000e+00 9.04400000e+00
1.58450000e+01 0.00000000e+00 0.00000000e+00 0.00000000e+00 1.48640000e+01 0.00000000e+00 0.00000000e+00 0.00000000e+00 9.06400000e+00
1.54520000e+01 0.00000000e+00 0.00000000e+00 0.00000000e+00 1.51600000e+01 0.00000000e+00 0.00000000e+00 0.00000000e+00 9.18200000e+00
1.58450000e+01 0.00000000e+00 0.00000000e+00 0.00000000e+00 1.48640000e+01 0.00000000e+00 0.00000000e+00 0.00000000e+00 9.06400000e+00
1.58280000e+01 0.00000000e+00 0.00000000e+00 0.00000000e+00 1.49710000e+01 0.00000000e+00 0.00000000e+00 0.00000000e+00 9.12100000e+00
1.58620000e+01 0.00000000e+00 0.00000000e+00 0.00000000e+00 1.51820000e+01 0.00000000e+00 0.00000000e+00 0.00000000e+00 9.05500000e+00
1.58620000e+01 0.00000000e+00 0.00000000e+00 0.00000000e+00 1.51820000e+01 0.00000000e+00 0.00000000e+00 0.00000000e+00 9.05500000e+00
1.57640000e+01 0.00000000e+00 0.00000000e+00 0.00000000e+00 1.49140000e+01 0.00000000e+00 0.00000000e+00 0.00000000e+00 9.10700000e+00
1.58620000e+01 0.00000000e+00 0.00000000e+00 0.00000000e+00 1.51820000e+01 0.00000000e+00 0.00000000e+00 0.00000000e+00 9.05500000e+00
1.53950000e+01 0.00000000e+00 0.00000000e+00 0.00000000e+00 1.53170000e+01 0.00000000e+00 0.00000000e+00 0.00000000e+00 9.14700000e+00
1.54820000e+01 0.00000000e+00 0.00000000e+00 0.00000000e+00 1.51530000e+01 0.00000000e+00 0.00000000e+00 0.00000000e+00 9.19700000e+00
1.54820000e+01 0.00000000e+00 0.00000000e+00 0.00000000e+00 1.51530000e+01 0.00000000e+00 0.00000000e+00 0.00000000e+00 9.19700000e+00
1.53950000e+01 0.00000000e+00 0.00000000e+00 0.00000000e+00 1.53170000e+01 0.00000000e+00 0.00000000e+00 0.00000000e+00 9.14700000e+00
1.58080000e+01 0.00000000e+00 0.00000000e+00 0.00000000e+00 1.50520000e+01 0.00000000e+00 0.00000000e+00 0.00000000e+00 9.01900000e+00
1.53950000e+01 0.00000000e+00 0.00000000e+00 0.00000000e+00 1.53170000e+01 0.00000000e+00 0.00000000e+00 0.00000000e+00 9.14700000e+00
1.59020000e+01 0.00000000e+00 0.00000000e+00 0.00000000e+00 1.50680000e+01 0.00000000e+00 0.00000000e+00 0.00000000e+00 9.00300000e+00
1.56730000e+01 0.00000000e+00 0.00000000e+00 0.00000000e+00 1.49230000e+01 0.00000000e+00 0.00000000e+00 0.00000000e+00 9.20900000e+00
1.60020000e+01 0.00000000e+00 0.00000000e+00 0.00000000e+00 1.50220000e+01 0.00000000e+00 0.00000000e+00 0.00000000e+00 9.22600000e+00
1.54880000e+01 0.00000000e+00 0.00000000e+00 0.00000000e+00 1.53390000e+01 0.00000000e+00 0.00000000e+00 0.00000000e+00 9.30500000e+00
1.59610000e+01 0.00000000e+00 0.00000000e+00 0.00000000e+00 1.49950000e+01 0.00000000e+00 0.00000000e+00 0.00000000e+00 9.16100000e+00
1.54880000e+01 0.00000000e+00 0.00000000e+00 0.00000000e+00 1.53390000e+01 0.00000000e+00 0.00000000e+00 0.00000000e+00 9.30500000e+00
1.57640000e+01 0.00000000e+00 0.00000000e+00 0.00000000e+00 1.49140000e+01 0.00000000e+00 0.00000000e+00 0.00000000e+00 9.10700000e+00
1.60020000e+01 0.00000000e+00 0.00000000e+00 0.00000000e+00 1.50220000e+01 0.00000000e+00 0.00000000e+00 0.00000000e+00 9.22600000e+00
1.54830000e+01 0.00000000e+00 0.00000000e+00 0.00000000e+00 1.48830000e+01 0.00000000e+00 0.00000000e+00 0.00000000e+00 9.17400000e+00
1.57250000e+01 0.00000000e+00 0.00000000e+00 0.00000000e+00 1.49190000e+01 0.00000000e+00 0.00000000e+00 0.00000000e+00 9.19500000e+00
1.57230000e+01 0.00000000e+00 0.00000000e+00 0.00000000e+00 1.47560000e+01 0.00000000e+00 0.00000000e+00 0.00000000e+00 9.35600000e+00
1.57850000e+01 0.00000000e+00 0.00000000e+00 0.00000000e+00 1.50550000e+01 0.00000000e+00 0.00000000e+00 0.00000000e+00 9.26200000e+00
1.57230000e+01 0.00000000e+00 0.00000000e+00 0.00000000e+00 1.47560000e+01 0.00000000e+00 0.00000000e+00 0.00000000e+00 9.35600000e+00
1.57640000e+01 0.00000000e+00 0.00000000e+00 0.00000000e+00 1.49140000e+01 0.00000000e+00 0.00000000e+00 0.00000000e+00 9.10700000e+00
1.58240000e+01 0.00000000e+00 0.00000000e+00 0.00000000e+00 1.50970000e+01 0.00000000e+00 0.00000000e+00 0.00000000e+00 8.95700000e+00
1.57820000e+01 0.00000000e+00 0.00000000e+00 0.00000000e+00 1.50790000e+01 0.00000000e+00 0.00000000e+00 0.00000000e+00 9.03300000e+00
1.54820000e+01 0.00000000e+00 0.00000000e+00 0.00000000e+00 1.51530000e+01 0.00000000e+00 0.00000000e+00 0.00000000e+00 9.19700000e+00
1.57140000e+01 0.00000000e+00 0.00000000e+00 0.00000000e+00 1.50410000e+01 0.00000000e+00 0.00000000e+00 0.00000000e+00 9.08200000e+00
1.53950000e+01 0.00000000e+00 0.00000000e+00 0.00000000e+00 1.53170000e+01 0.00000000e+00 0.00000000e+00 0.00000000e+00 9.14700000e+00
1.56730000e+01 0.00000000e+00 0.00000000e+00 0.00000000e+00 1.49230000e+01 0.00000000e+00 0.00000000e+00 0.00000000e+00 9.20900000e+00
1.57140000e+01 0.00000000e+00 0.00000000e+00 0.00000000e+00 1.50410000e+01 0.00000000e+00 0.00000000e+00 0.00000000e+00 9.08200000e+00
1.54880000e+01 0.00000000e+00 0.00000000e+00 0.00000000e+00 1.53390000e+01 0.00000000e+00 0.00000000e+00 0.00000000e+00 9.30500000e+00
1.57140000e+01 0.00000000e+00 0.00000000e+00 0.00000000e+00 1.50410000e+01 0.00000000e+00 0.00000000e+00 0.00000000e+00 9.08200000e+00
1.59700000e+01 0.00000000e+00 0.00000000e+00 0.00000000e+00 1.50800000e+01 0.00000000e+00 0.00000000e+00 0.00000000e+00 8.98400000e+00
1.58140000e+01 0.00000000e+00 0.00000000e+00 0.00000000e+00 1.47120000e+01 0.00000000e+00 0.00000000e+00 0.00000000e+00 9.16600000e+00
1.55340000e+01 0.00000000e+00 0.00000000e+00 0.00000000e+00 1.47800000e+01 0.00000000e+00 0.00000000e+00 0.00000000e+00 9.17900000e+00
1.57920000e+01 0.00000000e+00 0.00000000e+00 0.00000000e+00 1.49160000e+01 0.00000000e+00 0.00000000e+00 0.00000000e+00 9.22200000e+00
1.55340000e+01 0.00000000e+00 0.00000000e+00 0.00000000e+00 1.47800000e+01 0.00000000e+00 0.00000000e+00 0.00000000e+00 9.17900000e+00
1.57140000e+01 0.00000000e+00 0.00000000e+00 0.00000000e+00 1.50000000e+01 0.00000000e+00 0.00000000e+00 0.00000000e+00 9.32700000e+00
1.58970000e+01 0.00000000e+00 0.00000000e+00 0.00000000e+00 1.51960000e+01 0.00000000e+00 0.00000000e+00 0.00000000e+00 9.08400000e+00
1.56470000e+01 0.00000000e+00 0.00000000e+00 0.00000000e+00 1.46830000e+01 0.00000000e+00 0.00000000e+00 0.00000000e+00 9.01500000e+00
1.60680000e+01 0.00000000e+00 0.00000000e+00 0.00000000e+00 1.48860000e+01 0.00000000e+00 0.00000000e+00 0.00000000e+00 9.34800000e+00
1.59700000e+01 0.00000000e+00 0.00000000e+00 0.00000000e+00 1.50800000e+01 0.00000000e+00 0.00000000e+00 0.00000000e+00 8.98400000e+00
1.54930000e+01 0.00000000e+00 0.00000000e+00 0.00000000e+00 1.53950000e+01 0.00000000e+00 0.00000000e+00 0.00000000e+00 9.35100000e+00
1.60680000e+01 0.00000000e+00 0.00000000e+00 0.00000000e+00 1.48860000e+01 0.00000000e+00 0.00000000e+00 0.00000000e+00 9.34800000e+00
1.59700000e+01 0.00000000e+00 0.00000000e+00 0.00000000e+00 1.50800000e+01 0.00000000e+00 0.00000000e+00 0.00000000e+00 8.98400000e+00
1.58800000e+01 0.00000000e+00 0.00000000e+00 0.00000000e+00 1.52340000e+01 0.00000000e+00 0.00000000e+00 0.00000000e+00 8.99300000e+00
1.58530000e+01 0.00000000e+00 0.00000000e+00 0.00000000e+00 1.49270000e+01 0.00000000e+00 0.00000000e+00 0.00000000e+00 9.19700000e+00
1.59330000e+01 0.00000000e+00 0.00000000e+00 0.00000000e+00 1.52550000e+01 0.00000000e+00 0.00000000e+00 0.00000000e+00 9.04500000e+00
1.55340000e+01 0.00000000e+00 0.00000000e+00 0.00000000e+00 1.47800000e+01 0.00000000e+00 0.00000000e+00 0.00000000e+00 9.17900000e+00
1.58970000e+01 0.00000000e+00 0.00000000e+00 0.00000000e+00 1.51960000e+01 0.00000000e+00 0.00000000e+00 0.00000000e+00 9.08400000e+00
1.57160000e+01 0.00000000e+00 0.00000000e+00 0.00000000e+00 1.50850000e+01 0.00000000e+00 0.00000000e+00 0.00000000e+00 9.16000000e+00
1.58970000e+01 0.00000000e+00 0.00000000e+00 0.00000000e+00 1.51960000e+01 0.00000000e+00 0.00000000e+00 0.00000000e+00 9.08400000e+00
1.60680000e+01 0.00000000e+00 0.00000000e+00 0.00000000e+00 1.48860000e+01 0.00000000e+00 0.00000000e+00 0.00000000e+00 9.34800000e+00
1.53900000e+01 0.00000000e+00 0.00000000e+00 0.00000000e+00 1.53220000e+01 0.00000000e+00 0.00000000e+00 0.00000000e+00 9.20200000e+00
1.59330000e+01 0.00000000e+00 0.00000000e+00 0.00000000e+00 1.52550000e+01 0.00000000e+00 0.00000000e+00 0.00000000e+00 9.04500000e+00
1.57140000e+01 0.00000000e+00 0.00000000e+00 0.00000000e+00 1.50000000e+01 0.00000000e+00 0.00000000e+00 0.00000000e+00 9.32700000e+00
1.57160000e+01 0.00000000e+00 0.00000000e+00 0.00000000e+00 1.50850000e+01 0.00000000e+00 0.00000000e+00 0.00000000e+00 9.16000000e+00
1.58160000e+01 0.00000000e+00 0.00000000e+00 0.00000000e+00 1.47560000e+01 0.00000000e+00 0.00000000e+00 0.00000000e+00 9.30000000e+00
1.58530000e+01 0.00000000e+00 0.00000000e+00 0.00000000e+00 1.49270000e+01 0.00000000e+00 0.00000000e+00 0.00000000e+00 9.19700000e+00
1.53900000e+01 0.00000000e+00 0.00000000e+00 0.00000000e+00 1.53220000e+01 0.00000000e+00 0.00000000e+00 0.00000000e+00 9.20200000e+00
1.57120000e+01 0.00000000e+00 0.00000000e+00 0.00000000e+00 1.49740000e+01 0.00000000e+00 0.00000000e+00 0.00000000e+00 9.11400000e+00
1.58140000e+01 0.00000000e+00 0.00000000e+00 0.00000000e+00 1.47120000e+01 0.00000000e+00 0.00000000e+00 0.00000000e+00 9.16600000e+00
1.54440000e+01 0.00000000e+00 0.00000000e+00 0.00000000e+00 1.48160000e+01 0.00000000e+00 0.00000000e+00 0.00000000e+00 9.17200000e+00
1.59330000e+01 0.00000000e+00 0.00000000e+00 0.00000000e+00 1.52550000e+01 0.00000000e+00 0.00000000e+00 0.00000000e+00 9.04500000e+00
1.59700000e+01 0.00000000e+00 0.00000000e+00 0.00000000e+00 1.50800000e+01 0.00000000e+00 0.00000000e+00 0.00000000e+00 8.98400000e+00
1.60810000e+01 0.00000000e+00 0.00000000e+00 0.00000000e+00 1.49940000e+01 0.00000000e+00 0.00000000e+00 0.00000000e+00 9.11800000e+00
1.58820000e+01 0.00000000e+00 0.00000000e+00 0.00000000e+00 1.47400000e+01 0.00000000e+00 0.00000000e+00 0.00000000e+00 9.32700000e+00
1.57810000e+01 0.00000000e+00 0.00000000e+00 0.00000000e+00 1.50420000e+01 0.00000000e+00 0.00000000e+00 0.00000000e+00 9.22600000e+00
1.56040000e+01 0.00000000e+00 0.00000000e+00 0.00000000e+00 1.54230000e+01 0.00000000e+00 0.00000000e+00 0.00000000e+00 9.38600000e+00
1.58820000e+01 0.00000000e+00 0.00000000e+00 0.00000000e+00 1.47400000e+01 0.00000000e+00 0.00000000e+00 0.00000000e+00 9.32700000e+00
1.57680000e+01 0.00000000e+00 0.00000000e+00 0.00000000e+00 1.50070000e+01 0.00000000e+00 0.00000000e+00 0.00000000e+00 9.18500000e+00
1.53610000e+01 0.00000000e+00 0.00000000e+00 0.00000000e+00 1.47890000e+01 0.00000000e+00 0.00000000e+00 0.00000000e+00 9.22100000e+00
1.58820000e+01 0.00000000e+00 0.00000000e+00 0.00000000e+00 1.47400000e+01 0.00000000e+00 0.00000000e+00 0.00000000e+00 9.32700000e+00
1.57350000e+01 0.00000000e+00 0.00000000e+00 0.00000000e+00 1.48920000e+01 0.00000000e+00 0.00000000e+00 0.00000000e+00 9.19500000e+00
1.55270000e+01 0.00000000e+00 0.00000000e+00 0.00000000e+00 1.54340000e+01 0.00000000e+00 0.00000000e+00 0.00000000e+00 9.27000000e+00
1.60810000e+01 0.00000000e+00 0.00000000e+00 0.00000000e+00 1.49940000e+01 0.00000000e+00 0.00000000e+00 0.00000000e+00 9.11800000e+00
1.57680000e+01 0.00000000e+00 0.00000000e+00 0.00000000e+00 1.50070000e+01 0.00000000e+00 0.00000000e+00 0.00000000e+00 9.18500000e+00
1.59200000e+01 0.00000000e+00 0.00000000e+00 0.00000000e+00 1.52760000e+01 0.00000000e+00 0.00000000e+00 0.00000000e+00 9.12400000e+00
1.58070000e+01 0.00000000e+00 0.00000000e+00 0.00000000e+00 1.50230000e+01 0.00000000e+00 0.00000000e+00 0.00000000e+00 9.29900000e+00
1.57810000e+01 0.00000000e+00 0.00000000e+00 0.00000000e+00 1.50420000e+01 0.00000000e+00 0.00000000e+00 0.00000000e+00 9.22600000e+00
1.57350000e+01 0.00000000e+00 0.00000000e+00 0.00000000e+00 1.48920000e+01 0.00000000e+00 0.00000000e+00 0.00000000e+00 9.19500000e+00
1.58820000e+01 0.00000000e+00 0.00000000e+00 0.00000000e+00 1.47400000e+01 0.00000000e+00 0.00000000e+00 0.00000000e+00 9.32700000e+00
1.56840000e+01 0.00000000e+00 0.00000000e+00 0.00000000e+00 1.51390000e+01 0.00000000e+00 0.00000000e+00 0.00000000e+00 9.21600000e+00
1.57350000e+01 0.00000000e+00 0.00000000e+00 0.00000000e+00 1.48920000e+01 0.00000000e+00 0.00000000e+00 0.00000000e+00 9.19500000e+00
1.57810000e+01 0.00000000e+00 0.00000000e+00 0.00000000e+00 1.50420000e+01 0.00000000e+00 0.00000000e+00 0.00000000e+00 9.22600000e+00
1.56040000e+01 0.00000000e+00 0.00000000e+00 0.00000000e+00 1.54230000e+01 0.00000000e+00 0.00000000e+00 0.00000000e+00 9.38600000e+00
1.60520000e+01 0.00000000e+00 0.00000000e+00 0.00000000e+00 1.53120000e+01 0.00000000e+00 0.00000000e+00 0.00000000e+00 8.90300000e+00
1.60800000e+01 0.00000000e+00 0.00000000e+00 0.00000000e+00 1.51940000e+01 0.00000000e+00 0.00000000e+00 0.00000000e+00 9.30100000e+00
1.60440000e+01 0.00000000e+00 0.00000000e+00 0.00000000e+00 1.51790000e+01 0.00000000e+00 0.00000000e+00 0.00000000e+00 8.99200000e+00
1.60520000e+01 0.00000000e+00 0.00000000e+00 0.00000000e+00 1.53120000e+01 0.00000000e+00 0.00000000e+00 0.00000000e+00 8.90300000e+00
1.56840000e+01 0.00000000e+00 0.00000000e+00 0.00000000e+00 1.51390000e+01 0.00000000e+00 0.00000000e+00 0.00000000e+00 9.21600000e+00
1.58560000e+01 0.00000000e+00 0.00000000e+00 0.00000000e+00 1.49320000e+01 0.00000000e+00 0.00000000e+00 0.00000000e+00 9.22600000e+00
1.56450000e+01 0.00000000e+00 0.00000000e+00 0.00000000e+00 1.49470000e+01 0.00000000e+00 0.00000000e+00 0.00000000e+00 9.23000000e+00
1.54510000e+01 0.00000000e+00 0.00000000e+00 0.00000000e+00 1.53230000e+01 0.00000000e+00 0.00000000e+00 0.00000000e+00 9.28500000e+00
1.58850000e+01 0.00000000e+00 0.00000000e+00 0.00000000e+00 1.53080000e+01 0.00000000e+00 0.00000000e+00 0.00000000e+00 9.15000000e+00
1.57130000e+01 0.00000000e+00 0.00000000e+00 0.00000000e+00 1.51210000e+01 0.00000000e+00 0.00000000e+00 0.00000000e+00 9.28100000e+00
1.55930000e+01 0.00000000e+00 0.00000000e+00 0.00000000e+00 1.53010000e+01 0.00000000e+00 0.00000000e+00 0.00000000e+00 9.13700000e+00
1.54510000e+01 0.00000000e+00 0.00000000e+00 0.00000000e+00 1.53230000e+01 0.00000000e+00 0.00000000e+00 0.00000000e+00 9.28500000e+00
1.55810000e+01 0.00000000e+00 0.00000000e+00 0.00000000e+00 1.53720000e+01 0.00000000e+00 0.00000000e+00 0.00000000e+00 9.36300000e+00
1.59970000e+01 0.00000000e+00 0.00000000e+00 0.00000000e+00 1.52300000e+01 0.00000000e+00 0.00000000e+00 0.00000000e+00 9.10600000e+00
1.58370000e+01 0.00000000e+00 0.00000000e+00 0.00000000e+00 1.49240000e+01 0.00000000e+00 0.00000000e+00 0.00000000e+00 9.20400000e+00
1.61430000e+01 0.00000000e+00 0.00000000e+00 0.00000000e+00 1.51840000e+01 0.00000000e+00 0.00000000e+00 0.00000000e+00 8.91800000e+00
1.55810000e+01 0.00000000e+00 0.00000000e+00 0.00000000e+00 1.53720000e+01 0.00000000e+00 0.00000000e+00 0.00000000e+00 9.36300000e+00
1.56270000e+01 0.00000000e+00 0.00000000e+00 0.00000000e+00 1.49120000e+01 0.00000000e+00 0.00000000e+00 0.00000000e+00 9.00900000e+00
1.58560000e+01 0.00000000e+00 0.00000000e+00 0.00000000e+00 1.49320000e+01 0.00000000e+00 0.00000000e+00 0.00000000e+00 9.22600000e+00
1.58620000e+01 0.00000000e+00 0.00000000e+00 0.00000000e+00 1.53230000e+01 0.00000000e+00 0.00000000e+00 0.00000000e+00 9.33800000e+00
1.57670000e+01 0.00000000e+00 0.00000000e+00 0.00000000e+00 1.51500000e+01 0.00000000e+00 0.00000000e+00 0.00000000e+00 9.24700000e+00
1.56600000e+01 0.00000000e+00 0.00000000e+00 0.00000000e+00 1.54680000e+01 0.00000000e+00 0.00000000e+00 0.00000000e+00 9.34000000e+00
1.60270000e+01 0.00000000e+00 0.00000000e+00 0.00000000e+00 1.50690000e+01 0.00000000e+00 0.00000000e+00 0.00000000e+00 9.38700000e+00
1.54510000e+01 0.00000000e+00 0.00000000e+00 0.00000000e+00 1.53230000e+01 0.00000000e+00 0.00000000e+00 0.00000000e+00 9.28500000e+00
1.61430000e+01 0.00000000e+00 0.00000000e+00 0.00000000e+00 1.51840000e+01 0.00000000e+00 0.00000000e+00 0.00000000e+00 8.91800000e+00
1.55930000e+01 0.00000000e+00 0.00000000e+00 0.00000000e+00 1.53010000e+01 0.00000000e+00 0.00000000e+00 0.00000000e+00 9.13700000e+00
1.61430000e+01 0.00000000e+00 0.00000000e+00 0.00000000e+00 1.51840000e+01 0.00000000e+00 0.00000000e+00 0.00000000e+00 8.91800000e+00
1.61430000e+01 0.00000000e+00 0.00000000e+00 0.00000000e+00 1.51840000e+01 0.00000000e+00 0.00000000e+00 0.00000000e+00 8.91800000e+00
1.58850000e+01 0.00000000e+00 0.00000000e+00 0.00000000e+00 1.53080000e+01 0.00000000e+00 0.00000000e+00 0.00000000e+00 9.15000000e+00
1.60290000e+01 0.00000000e+00 0.00000000e+00 0.00000000e+00 1.50950000e+01 0.00000000e+00 0.00000000e+00 0.00000000e+00 9.09800000e+00
1.54950000e+01 0.00000000e+00 0.00000000e+00 0.00000000e+00 1.48160000e+01 0.00000000e+00 0.00000000e+00 0.00000000e+00 9.39800000e+00
1.55930000e+01 0.00000000e+00 0.00000000e+00 0.00000000e+00 1.53010000e+01 0.00000000e+00 0.00000000e+00 0.00000000e+00 9.13700000e+00
1.57130000e+01 0.00000000e+00 0.00000000e+00 0.00000000e+00 1.51210000e+01 0.00000000e+00 0.00000000e+00 0.00000000e+00 9.28100000e+00
1.56600000e+01 0.00000000e+00 0.00000000e+00 0.00000000e+00 1.54680000e+01 0.00000000e+00 0.00000000e+00 0.00000000e+00 9.34000000e+00
1.56270000e+01 0.00000000e+00 0.00000000e+00 0.00000000e+00 1.49120000e+01 0.00000000e+00 0.00000000e+00 0.00000000e+00 9.00900000e+00
1.56450000e+01 0.00000000e+00 0.00000000e+00 0.00000000e+00 1.49470000e+01 0.00000000e+00 0.00000000e+00 0.00000000e+00 9.23000000e+00
1.58370000e+01 0.00000000e+00 0.00000000e+00 0.00000000e+00 1.49240000e+01 0.00000000e+00 0.00000000e+00 0.00000000e+00 9.20400000e+00
1.56240000e+01 0.00000000e+00 0.00000000e+00 0.00000000e+00 1.50390000e+01 0.00000000e+00 0.00000000e+00 0.00000000e+00 9.12000000e+00
1.56950000e+01 0.00000000e+00 0.00000000e+00 0.00000000e+00 1.49780000e+01 0.00000000e+00 0.00000000e+00 0.00000000e+00 9.01800000e+00
1.56680000e+01 0.00000000e+00 0.00000000e+00 0.00000000e+00 1.49430000e+01 0.00000000e+00 0.00000000e+00 0.00000000e+00 9.13100000e+00
1.55360000e+01 0.00000000e+00 0.00000000e+00 0.00000000e+00 1.50430000e+01 0.00000000e+00 0.00000000e+00 0.00000000e+00 9.20800000e+00
1.55050000e+01 0.00000000e+00 0.00000000e+00 0.00000000e+00 1.48910000e+01 0.00000000e+00 0.00000000e+00 0.00000000e+00 9.05300000e+00
1.57080000e+01 0.00000000e+00 0.00000000e+00 0.00000000e+00 1.49310000e+01 0.00000000e+00 0.00000000e+00 0.00000000e+00 8.95600000e+00
1.57590000e+01 0.00000000e+00 0.00000000e+00 0.00000000e+00 1.47220000e+01 0.00000000e+00 0.00000000e+00 0.00000000e+00 9.25200000e+00
1.56990000e+01 0.00000000e+00 0.00000000e+00 0.00000000e+00 1.50090000e+01 0.00000000e+00 0.00000000e+00 0.00000000e+00 9.05800000e+00
1.58450000e+01 0.00000000e+00 0.00000000e+00 0.00000000e+00 1.49920000e+01 0.00000000e+00 0.00000000e+00 0.00000000e+00 9.04600000e+00
1.53630000e+01 0.00000000e+00 0.00000000e+00 0.00000000e+00 1.49150000e+01 0.00000000e+00 0.00000000e+00 0.00000000e+00 9.27800000e+00
1.56670000e+01 0.00000000e+00 0.00000000e+00 0.00000000e+00 1.50580000e+01 0.00000000e+00 0.00000000e+00 0.00000000e+00 9.08600000e+00
1.55240000e+01 0.00000000e+00 0.00000000e+00 0.00000000e+00 1.48770000e+01 0.00000000e+00 0.00000000e+00 0.00000000e+00 9.07800000e+00
1.57170000e+01 0.00000000e+00 0.00000000e+00 0.00000000e+00 1.50360000e+01 0.00000000e+00 0.00000000e+00 0.00000000e+00 9.07900000e+00
1.57170000e+01 0.00000000e+00 0.00000000e+00 0.00000000e+00 1.49650000e+01 0.00000000e+00 0.00000000e+00 0.00000000e+00 8.99600000e+00
1.53480000e+01 0.00000000e+00 0.00000000e+00 0.00000000e+00 1.49690000e+01 0.00000000e+00 0.00000000e+00 0.00000000e+00 9.08300000e+00
1.56470000e+01 0.00000000e+00 0.00000000e+00 0.00000000e+00 1.47250000e+01 0.00000000e+00 0.00000000e+00 0.00000000e+00 9.13200000e+00
1.57900000e+01 0.00000000e+00 0.00000000e+00 0.00000000e+00 1.50290000e+01 0.00000000e+00 0.00000000e+00 0.00000000e+00 9.01700000e+00
1.60000000e+01 0.00000000e+00 0.00000000e+00 0.00000000e+00 1.49710000e+01 0.00000000e+00 0.00000000e+00 0.00000000e+00 9.03500000e+00
1.57910000e+01 0.00000000e+00 0.00000000e+00 0.00000000e+00 1.47600000e+01 0.00000000e+00 0.00000000e+00 0.00000000e+00 8.94000000e+00
1.57820000e+01 0.00000000e+00 0.00000000e+00 0.00000000e+00 1.49420000e+01 0.00000000e+00 0.00000000e+00 0.00000000e+00 8.97900000e+00
1.57520000e+01 0.00000000e+00 0.00000000e+00 0.00000000e+00 1.48620000e+01 0.00000000e+00 0.00000000e+00 0.00000000e+00 9.20700000e+00
1.58030000e+01 0.00000000e+00 0.00000000e+00 0.00000000e+00 1.48260000e+01 0.00000000e+00 0.00000000e+00 0.00000000e+00 9.13600000e+00