-3.00339043e+04
-3.00341854e+04
-3.00326923e+04
-3.00319085e+04
-3.00295942e+04
-3.00346675e+04
-3.00352801e+04
-3.00323077e+04
-3.00312071e+04
-3.00335302e+04
-3.00290519e+04
-3.00333152e+04
-3.00266423e+04
-3.00364561e+04
-3.00260771e+04
-3.00334904e+04
-3.00299247e+04
-3.00315477e+04
-3.00346819e+04
-3.00334718e+04
-3.00317427e+04
-3.00337063e+04
-3.00294931e+04
-3.00336711e+04
-3.00346358e+04
-3.00336087e+04
-3.00318194e+04
-3.00305582e+04
-3.00325144e+04
-3.00314972e+04
-3.00333297e+04
-3.00293609e+04
-3.00328559e+04
-3.00293225e+04
-3.00307035e+04
-3.00300051e+04
-3.00299459e+04
-3.00285964e+04
-3.00296591e+04
-3.00312495e+04
-3.00308450e+04
-3.00308296e+04
-3.00299756e+04
-3.00345596e+04
-3.00321640e+04
-3.00321218e+04
-3.00336171e+04
-3.00279021e+04
-3.00299172e+04
-3.00327745e+04
-3.00301656e+04
-3.00301319e+04
-3.00305173e+04
-3.00331386e+04
-3.00349874e+04
-3.00317210e+04
-3.00316152e+04
-3.00305037e+04
-3.00337056e+04
-3.00300230e+04
-3.00323162e+04
-3.00265072e+04
-3.00318209e+04
-3.00322882e+04
-3.00323544e+04
-3.00280350e+04
-3.00317186e+04
-3.00313109e+04
-3.00314217e+04
-3.00309488e+04
-3.00325012e+04
-3.00293589e+04
-3.00312368e+04
-3.00305127e+04
-3.00324420e+04
-3.00300550e+04
-3.00287667e+04
-3.00314402e+04
-3.00256396e+04
-3.00301129e+04
-3.00297567e+04
-3.00279342e+04
-3.00315778e+04
-3.00288431e+04
-3.00301092e+04
-3.00323001e+04
-3.00314431e+04
-3.00325776e+04
-3.00276424e+04
-3.00313830e+04
-3.00263257e+04
-3.00300153e+04
-3.00282354e+04
-3.00287263e+04
-3.00262669e+04
-3.00284594e+04
-3.00303932e+04
-3.00314026e+04
-3.00288984e+04
-3.00300456e+04
-3.00332226e+04
-3.00307813e+04
-3.00272680e+04
-3.00311962e+04
-3.00312460e+04
-3.00324837e+04
-3.00317804e+04
-3.00312941e+04
-3.00320067e+04
-3.00298936e+04
-3.00291737e+04
-3.00318997e+04
-3.00301859e+04
-3.00297344e+04
-3.00306773e+04
-3.00302648e+04
-3.00303422e+04
-3.00297828e+04
-3.00288960e+04
-3.00292800e+04
-3.00326371e+04
-3.00294454e+04
-3.00273639e+04
-3.00281267e+04
-3.00286176e+04
-3.00313144e+04
-3.00266792e+04
-3.00281880e+04
-3.00264491e+04
-3.00308315e+04
-3.00292061e+04
-3.00278421e+04
-3.00319338e+04
-3.00292702e+04
-3.00286432e+04
-3.00289791e+04
-3.00312732e+04
-3.00300536e+04
-3.00300718e+04
-3.00317995e+04
-3.00299093e+04
-3.00278859e+04
-3.00272634e+04
-3.00291419e+04
-3.00288602e+04
-3.00257111e+04
-3.00301762e+04
-3.00311253e+04
-3.00308396e+04
-3.00301375e+04
-3.00301294e+04
-3.00298398e+04
-3.00287591e+04
-3.00304828e+04
-3.00274366e+04
-3.00307809e+04
-3.00232947e+04
-3.00304263e+04
-3.00260041e+04
-3.00254968e+04
-3.00320419e+04
-3.00253175e+04
-3.00305085e+04
-3.00254591e+04
-3.00290608e+04
-3.00315777e+04
-3.00308500e+04
-3.00258896e+04
-3.00289992e+04
-3.00239400e+04
-3.00315954e+04
-3.00284623e+04
-3.00245011e+04
-3.00320162e+04
-3.00310943e+04
-3.00316514e+04
-3.00282386e+04
-3.00286166e+04
-3.00321973e+04
-3.00281414e+04
-3.00254831e+04
-3.00261114e+04
-3.00250504e+04
-3.00299367e+04
-3.00255681e+04
-3.00295249e+04
-3.00262330e+04
-3.00284138e+04
-3.00307050e+04
-3.00302533e+04
-3.00276067e+04
-3.00266744e+04
-3.00263299e+04
-3.00314460e+04
-3.00272664e+04
-3.00281535e+04
-3.00303545e+04
-3.00258891e+04
-3.00268085e+04
-3.00303145e+04
-3.00336827e+04
-3.00337481e+04
-3.00339011e+04
-3.00320416e+04
-3.00321134e+04
-3.00335843e+04
-3.00330903e+04
-3.00332147e+04
-3.00343522e+04
-3.00324563e+04
-3.00347769e+04
-3.00334750e+04
-3.00300770e+04
-3.00324262e+04
-3.00333563e+04
-3.00318684e+04
-3.00330101e+04
-3.00301573e+04
-3.00269353e+04
-3.00342041e+04
-3.00336687e+04
-3.00305092e+04
-3.00304436e+04
-3.00327984e+04
-3.00331511e+04
-3.00303711e+04
-3.00325524e+04
-3.00286921e+04
-3.00318972e+04
-3.00290274e+04
-3.00312131e+04
-3.00321016e+04
-3.00297863e+04
-3.00295459e+04
-3.00293505e+04
-3.00263010e+04
-3.00333453e+04
-3.00315803e+04
-3.00273444e+04
-3.00281525e+04
-3.00290482e+04
-3.00293152e+04
-3.00308109e+04
-3.00322072e+04
-3.00333584e+04
-3.00315013e+04
-3.00318135e+04
-3.00345838e+04
-3.00309190e+04
-3.00346668e+04
-3.00305117e+04
-3.00322160e+04
-3.00333874e+04
-3.00307264e+04
-3.00272505e+04
-3.00312189e+04
-3.00292783e+04
-3.00325336e+04
-3.00309171e+04
-3.00292310e+04
-3.00328257e+04
-3.00293782e+04
-3.00310229e+04
-3.00316855e+04
-3.00291928e+04
-3.00277443e+04
-3.00319303e+04
-3.00292916e+04
-3.00309816e+04
-3.00269529e+04
-3.00320222e+04
-3.00266742e+04
-3.00294069e+04
-3.00301925e+04
-3.00347705e+04
-3.00305237e+04
-3.00291377e+04
-3.00320850e+04
-3.00292261e+04
-3.00263114e+04
-3.00316212e+04
-3.00283594e+04
-3.00304604e+04
-3.00248420e+04
-3.00266453e+04
-3.00298824e+04
-3.00299766e+04
-3.00310384e+04
-3.00292077e+04
-3.00323134e+04
-3.00302332e+04
-3.00280897e+04
-3.00267118e+04
-3.00306690e+04
-3.00309948e+04
-3.00315368e+04
-3.00315145e+04
-3.00294886e+04
-3.00307460e+04
-3.00282828e+04
-3.00310807e+04
-3.00283422e+04
-3.00282035e+04
-3.00283364e+04
-3.00295845e+04
-3.00275724e+04
-3.00267272e+04
-3.00268949e+04
-3.00285482e+04
-3.00321398e+04
-3.00300599e+04
-3.00265805e+04
-3.00307553e+04
-3.00286895e+04
-3.00275657e+04
-3.00256824e+04
-3.00298076e+04
-3.00292184e+04
-3.00263855e+04
-3.00293109e+04
-3.00309633e+04
-3.00289957e+04
-3.00276245e+04
-3.00342132e+04
-3.00274913e+04
-3.00299776e+04
-3.00313924e+04
-3.00264192e+04
-3.00302090e+04
-3.00281902e+04
-3.00268599e+04
-3.00312203e+04
-3.00295159e+04
-3.00273828e+04
-3.00231055e+04
-3.00278374e+04
-3.00283177e+04
-3.00273033e+04
-3.00292265e+04
-3.00312819e+04
-3.00312209e+04
-3.00295874e+04
-3.00281292e+04
-3.00272852e+04
-3.00282392e+04
-3.00287899e+04
-3.00298110e+04
-3.00315871e+04
-3.00264730e+04
-3.00299587e+04
-3.00285898e+04
-3.00293496e+04
-3.00308277e+04
-3.00299502e+04
-3.00288448e+04
-3.00296367e+04
-3.00291251e+04
-3.00284220e+04
-3.00334562e+04
-3.00296401e+04
-3.00283325e+04
-3.00293809e+04
-3.00307961e+04
-3.00258766e+04
-3.00285556e+04
-3.00322965e+04
-3.00291197e+04
-3.00274177e+04
-3.00279428e+04
-3.00281802e+04
-3.00230723e+04
-3.00246650e+04
-3.00278521e+04
-3.00254847e+04
-3.00273265e+04
-3.00289097e+04
-3.00274242e+04
-3.00262495e+04
-3.00297002e+04
-3.00275067e+04
-3.00281999e+04
-3.00236576e+04
-3.00314270e+04
-3.00296901e+04
-3.00276213e+04
-3.00273343e+04
-3.00282374e+04
-3.00282731e+04
-3.00269537e+04
-3.00284741e+04
-3.00304044e+04
-3.00305400e+04
-3.00284002e+04
-3.00277892e+04
-3.00312640e+04
-3.00286345e+04
-3.00276649e+04
-3.00290478e+04
-3.00287846e+04
-3.00257711e+04
-3.00309864e+04
-3.00338946e+04
-3.00328011e+04
-3.00323908e+04
-3.00289163e+04
-3.00316919e+04
-3.00302626e+04
-3.00320228e+04
-3.00330665e+04
-3.00324142e+04
-3.00339817e+04
-3.00334479e+04
-3.00308213e+04
-3.00340323e+04
-3.00340329e+04
-3.00311891e+04
-3.00325925e+04
-3.00331572e+04
-3.00319680e+04
-3.00353200e+04
-3.00343138e+04
-3.00309852e+04
-3.00329025e+04
-3.00313004e+04
-3.00318672e+04
-3.00321482e+04
-3.00309693e+04
-3.00294444e+04
-3.00320404e+04
-3.00309032e+04
-3.00309885e+04
-3.00261243e+04
-3.00321733e+04
-3.00329559e+04
-3.00301836e+04
-3.00326136e+04
-3.00318507e+04
-3.00310654e+04
-3.00341050e+04
-3.00296340e+04
-3.00327419e+04
-3.00299543e+04
-3.00294603e+04
-3.00273068e+04
-3.00326561e+04
-3.00313388e+04
-3.00331967e+04
-3.00303638e+04
-3.00263203e+04
-3.00301507e+04
-3.00315819e+04
-3.00313459e+04
-3.00259291e+04
-3.00285243e+04
-3.00304225e+04
-3.00300141e+04
-3.00280853e+04
-3.00312301e+04
-3.00284398e+04
-3.00290231e+04
-3.00319041e+04
-3.00324529e+04
-3.00312605e+04
-3.00334003e+04
-3.00325251e+04
-3.00290941e+04
-3.00312519e+04
-3.00299720e+04
-3.00299288e+04
-3.00292782e+04
-3.00275032e+04
-3.00314773e+04
-3.00294341e+04
-3.00304550e+04
-3.00274847e+04
-3.00273667e+04
-3.00342328e+04
-3.00310705e+04
-3.00325776e+04
-3.00303272e+04
-3.00319115e+04
-3.00329493e+04
-3.00292970e+04
-3.00267709e+04
-3.00270865e+04
-3.00294580e+04
-3.00297591e+04
-3.00292013e+04
-3.00324437e+04
-3.00320872e+04
-3.00284528e+04
-3.00292754e+04
-3.00324892e+04
-3.00278980e+04
-3.00269529e+04
-3.00306380e+04
-3.00299663e+04
-3.00276803e+04
-3.00248656e+04
-3.00306558e+04
-3.00301223e+04
-3.00293926e+04
-3.00313320e+04
-3.00316115e+04
-3.00306934e+04
-3.00295592e+04
-3.00281855e+04
-3.00304277e+04
-3.00316240e+04
-3.00290187e+04
-3.00297781e+04
-3.00324658e+04
-3.00321305e+04
-3.00310685e+04
-3.00292126e+04
-3.00289522e+04
-3.00293687e+04
-3.00310671e+04
-3.00268781e+04
-3.00296445e+04
-3.00290009e+04
-3.00289273e+04
-3.00320758e+04
-3.00271916e+04
-3.00261207e+04
-3.00310743e+04
-3.00268931e+04
-3.00320884e+04
-3.00321583e+04
-3.00313837e+04
-3.00277027e+04
-3.00303392e+04
-3.00256889e+04
-3.00291821e+04
-3.00314585e+04
-3.00277915e+04
-3.00322659e+04
-3.00313390e+04
-3.00250064e+04
-3.00287528e+04
-3.00292731e+04
-3.00280520e+04
-3.00281770e+04
-3.00280120e+04
-3.00305261e+04
-3.00298101e+04
-3.00261947e+04
-3.00287004e+04
-3.00292979e+04
-3.00258881e+04
-3.00304324e+04
-3.00243068e+04
-3.00295001e+04
-3.00309123e+04
-3.00264657e+04
-3.00317059e+04
-3.00248462e+04
-3.00332175e+04
-3.00296966e+04
-3.00298875e+04
-3.00310384e+04
-3.00314436e+04
-3.00285681e+04
-3.00297885e+04
-3.00286403e+04
-3.00311374e+04
-3.00309337e+04
-3.00303888e+04
-3.00267092e+04
-3.00283811e+04
-3.00269057e+04
-3.00296297e+04
-3.00270156e+04
-3.00254827e+04
-3.00254366e+04
-3.00274624e+04
-3.00305109e+04
-3.00288291e+04
-3.00282606e+04
-3.00259861e+04
-3.00278508e+04
-3.00284741e+04
-3.00293912e+04
-3.00303934e+04
-3.00292743e+04
-3.00270248e+04
-3.00301663e+04
-3.00247734e+04
-3.00271111e+04
-3.00306930e+04
-3.00282559e+04
-3.00283206e+04
-3.00219529e+04
-3.00262176e+04
-3.00300775e+04
-3.00275445e+04
-3.00283871e+04
-3.00266070e+04
-3.00299584e+04
-3.00300797e+04
-3.00314746e+04
-3.00306101e+04
-3.00345105e+04
-3.00315703e+04
-3.00348114e+04
-3.00331950e+04
-3.00301961e+04
-3.00305641e+04
-3.00324250e+04
-3.00277988e+04
-3.00320978e+04
-3.00303265e+04
-3.00319347e+04
-3.00295256e+04
-3.00326836e+04
-3.00287121e+04
-3.00277128e+04
-3.00303021e+04
-3.00304514e+04
-3.00298181e+04
-3.00316711e+04
-3.00328294e+04
-3.00300360e+04
-3.00308770e+04
-3.00300266e+04
-3.00289021e+04
-3.00247434e+04
-3.00274542e+04
-3.00300293e+04
-3.00308316e+04
-3.00277353e+04
-3.00279748e+04
-3.00284544e+04
-3.00248263e+04
-3.00249929e+04
-3.00253870e+04
-3.00292821e+04
-3.00261343e+04
-3.00272361e+04
-3.00274654e+04
-3.00302102e+04
-3.00290151e+04
-3.00263925e+04
-3.00308285e+04
-3.00266181e+04
-3.00306066e+04
-3.00258049e+04
-3.00316068e+04
-3.00318349e+04
-3.00244931e+04
-3.00309668e+04
-3.00263154e+04
-3.00254494e+04
-3.00263967e+04
-3.00271532e+04
-3.00253917e+04
-3.00253325e+04
-3.00302142e+04
-3.00303293e+04
-3.00308560e+04
-3.00326963e+04
-3.00332206e+04
-3.00343516e+04
-3.00351076e+04
-3.00322751e+04
-3.00320032e+04
-3.00308451e+04
-3.00273911e+04
-3.00323632e+04
-3.00287813e+04
-3.00325454e+04
-3.00315465e+04
-3.00290555e+04
-3.00324259e+04
-3.00314146e+04
-3.00282244e+04
-3.00275595e+04
-3.00297318e+04
-3.00302975e+04
-3.00296734e+04
-3.00297686e+04
-3.00266703e+04
-3.00280334e+04
-3.00264482e+04
-3.00302723e+04
-3.00278032e+04
-3.00300495e+04
-3.00286631e+04
-3.00299059e+04
-3.00298718e+04
-3.00282509e+04
-3.00278846e+04
-3.00284936e+04
-3.00284672e+04
-3.00280429e+04
-3.00323074e+04
-3.00353398e+04
-3.00314719e+04
-3.00312212e+04
-3.00325440e+04
-3.00303250e+04
-3.00309657e+04
-3.00312342e+04
-3.00314529e+04
-3.00348943e+04
-3.00269782e+04
-3.00315008e+04
-3.00310994e+04
-3.00312812e+04
-3.00303593e+04
-3.00304957e+04
-3.00326453e+04
-3.00286025e+04
-3.00308520e+04
-3.00289484e+04
-3.00310857e+04
-3.00303587e+04
-3.00291930e+04
-3.00285229e+04
-3.00305700e+04
-3.00324526e+04
-3.00318831e+04
-3.00286679e+04
-3.00295971e+04
-3.00312310e+04
-3.00292322e+04
-3.00335376e+04
-3.00281355e+04
-3.00289649e+04
-3.00325911e+04
-3.00299296e+04
-3.00297695e+04
-3.00284144e+04
-3.00299915e+04
-3.00279800e+04
-3.00280281e+04
-3.00324608e+04
-3.00276628e+04
-3.00307198e+04
-3.00316018e+04
-3.00321383e+04
-3.00291689e+04
-3.00306444e+04
-3.00272977e+04
-3.00294864e+04
-3.00303197e+04
-3.00284716e+04
-3.00292421e+04
-3.00287430e+04
-3.00279678e+04
-3.00269585e+04
-3.00234474e+04
-3.00286341e+04
-3.00290024e+04
-3.00296334e+04
-3.00322327e+04
-3.00297352e+04
-3.00299148e+04
-3.00270448e+04
-3.00277813e+04
-3.00285851e+04
-3.00274022e+04
-3.00290841e+04
-3.00277983e+04
-3.00308832e+04
-3.00273480e+04
-3.00293432e+04
-3.00294863e+04
-3.00263479e+04
-3.00257420e+04
-3.00260759e+04
-3.00233694e+04
-3.00298350e+04
-3.00251964e+04
-3.00290719e+04
-3.00240440e+04
-3.00273221e+04
-3.00255114e+04
-3.00247808e+04
-3.00275593e+04
-3.00277010e+04
-3.00244101e+04
-3.00238008e+04
-3.00231158e+04
-3.00265651e+04
-3.00259864e+04
-3.00262874e+04
-3.00270875e+04
-3.00287157e+04
-3.00261345e+04
-3.00235171e+04
-3.00229948e+04
-3.00230933e+04
-3.00248734e+04
-3.00258909e+04
-3.00258881e+04
-3.00286763e+04
-3.00244395e+04
-3.00220498e+04
-3.00239597e+04
-3.00246180e+04
-3.00246805e+04
-3.00237262e+04
-3.00217466e+04
-3.00242359e+04
-3.00229805e+04
-3.00249866e+04
-3.00198747e+04
-3.00245734e+04
-3.00232049e+04
-3.00187511e+04
-3.00185588e+04
-3.00213032e+04
-3.00231014e+04
-3.00211217e+04
-3.00180442e+04
-3.00242181e+04
-3.00207417e+04
-3.00246576e+04
-3.00212454e+04
-3.00253340e+04
-3.00223507e+04
-3.00238923e+04
-3.00212155e+04
-3.00223376e+04
-3.00161954e+04
-3.00245527e+04
-3.00245482e+04
-3.00198590e+04
-3.00235740e+04
-3.00195539e+04
-3.00207651e+04
-3.00233455e+04
-3.00219578e+04
-3.00184819e+04
-3.00222863e+04
-3.00224279e+04
-3.00241136e+04
-3.00224550e+04
-3.00216407e+04
-3.00183929e+04
-3.00242779e+04
-3.00205981e+04
-3.00227440e+04
-3.00175560e+04
-3.00218722e+04
-3.00238040e+04
