1.56540000e+01 0.00000000e+00 0.00000000e+00 0.00000000e+00 1.52240000e+01 0.00000000e+00 0.00000000e+00 0.00000000e+00 9.10300000e+00
1.52820000e+01 0.00000000e+00 0.00000000e+00 0.00000000e+00 1.52490000e+01 0.00000000e+00 0.00000000e+00 0.00000000e+00 9.19500000e+00
1.60330000e+01 0.00000000e+00 0.00000000e+00 0.00000000e+00 1.47710000e+01 0.00000000e+00 0.00000000e+00 0.00000000e+00 9.23400000e+00
