1.50809000e+00 1.79435800e+00 3.28870200e+00 5.14621000e+00 4.60815800e+00 1.66352200e+00 6.43152000e+00 5.56203800e+00 3.85375200e+00 5.15121000e+00 4.62312800e+00 6.07531200e+00 2.69818000e+00 8.17055000e-01 5.56534200e+00 2.58215000e+00 5.48363800e+00 5.81804200e+00 5.62040000e+00 1.89180800e+00 1.09808600e+00 5.20759000e+00 1.58826800e+00 5.70856200e+00 1.28685000e+00 4.53193800e+00 8.10838200e+00 1.39194000e+00 4.71662800e+00 3.52679200e+00 2.53006000e+00 5.39352800e+00 1.25936200e+00 2.91212000e+00 6.08733000e-01 1.10954000e+00 6.51810000e+00 5.94387000e-01 3.50832200e+00 6.68344000e+00 9.94323000e-01 7.88198200e+00 6.27887000e+00 5.58226800e+00 8.45510200e+00 1.51976000e+00 1.48085800e+00 7.85805200e+00 9.11732000e+00 1.72715800e+00 3.49468200e+00 1.33744800e+01 5.00880800e+00 1.23870200e+00 1.43326800e+01 6.02649800e+00 3.55398200e+00 1.30847800e+01 4.64681800e+00 5.69069200e+00 1.06721800e+01 9.44386000e-01 5.69778200e+00 1.01752500e+01 5.65167800e+00 5.55609200e+00 1.31967800e+01 2.13007800e+00 8.28906000e-01 1.32147800e+01 1.69044800e+00 5.22999200e+00 9.02823000e+00 5.25269800e+00 7.97148200e+00 9.02783000e+00 4.65694800e+00 3.13828200e+00 1.04689800e+01 5.92451800e+00 9.24746000e-01 1.08532800e+01 1.12836900e+00 1.23905200e+00 1.44522800e+01 9.37809000e-01 2.91631200e+00 1.45264800e+01 1.05835000e+00 7.58963200e+00 1.44211800e+01 5.52478800e+00 7.85438200e+00 9.54123000e+00 2.14553800e+00 8.08497200e+00 1.56869000e+00 9.64008800e+00 3.53000200e+00 5.14202000e+00 1.21351980e+01 9.67791000e-01 6.27081000e+00 1.31468980e+01 3.21868200e+00 5.16512000e+00 1.22642980e+01 5.70967200e+00 2.93551000e+00 8.31311800e+00 5.85067200e+00 2.63842000e+00 1.31653980e+01 5.13453200e+00 4.89636000e+00 9.46164800e+00 1.48788200e+00 5.28315000e+00 9.63253800e+00 5.93590200e+00 1.53017000e+00 1.21301980e+01 7.62510200e+00 1.13524000e+00 1.21762980e+01 2.76157200e+00 2.69876000e+00 1.32412980e+01 7.12350000e-01 2.45273000e+00 8.26534800e+00 1.38839200e+00 6.61919000e+00 8.55438800e+00 3.33070200e+00 6.01970000e+00 8.24706800e+00 8.25064200e+00 6.72362000e+00 1.34904980e+01 7.94329200e+00 1.50262000e+00 9.38658800e+00 7.97225200e+00 8.99958000e+00 9.77177800e+00 3.44588200e+00 1.31291800e+01 1.19968980e+01 7.43597000e-01 1.41972800e+01 1.29361980e+01 3.16796200e+00 1.31139800e+01 1.20183980e+01 5.65758200e+00 1.02139800e+01 8.80423800e+00 5.54130200e+00 1.05032800e+01 1.31642980e+01 5.68181200e+00 1.28786800e+01 9.17375800e+00 1.00310800e+00 1.28865800e+01 9.56005800e+00 5.62911200e+00 9.10815000e+00 1.22546980e+01 7.97519200e+00 9.00267000e+00 1.25693980e+01 3.52532200e+00 1.05563800e+01 1.32898980e+01 1.32592200e+00 1.03276800e+01 8.76614800e+00 1.15541200e+00 1.44098800e+01 8.89236800e+00 3.47306200e+00 1.44774800e+01 8.58309800e+00 7.79410200e+00 1.44620800e+01 1.33144980e+01 7.86466200e+00 8.79213000e+00 9.39415800e+00 7.91095200e+00 6.37498000e-01 1.62019800e+00 2.97669200e+00 2.10700000e+00 1.51917800e+00 2.54219200e+00 5.41456000e+00 4.91233800e+00 2.54571200e+00 5.67333000e+00 4.99182800e+00 9.60142000e-01 5.99739000e+00 5.23265800e+00 4.64439200e+00 6.44300000e+00 6.54197800e+00 3.80681200e+00 4.15066000e+00 4.90694800e+00 5.88592200e+00 5.25862000e+00 3.66336800e+00 5.97127200e+00 2.23153000e+00 1.26730000e+00 4.80909200e+00 3.63724000e+00 9.87501000e-01 5.50513200e+00 2.06380000e+00 5.32160800e+00 4.97503200e+00 2.11023000e+00 5.19564800e+00 6.62608200e+00 5.89128000e+00 1.46772800e+00 1.89957200e+00 5.52800000e+00 2.84913800e+00 1.36700200e+00 5.82303000e+00 1.54905800e+00 6.42354200e+00 5.71824000e+00 1.17443200e+00 4.98624200e+00 1.69600000e+00 4.98760800e+00 8.81443200e+00 1.44463000e+00 3.59459800e+00 8.29054200e+00 4.77120000e-01 4.93053800e+00 3.56786200e+00 1.44989000e+00 3.73842800e+00 3.52888200e+00 3.49691000e+00 5.19180800e+00 1.26542200e+00 2.08469000e+00 4.98517800e+00 2.04364200e+00 3.85062000e+00 1.00676000e+00 1.11870800e+00 2.96124000e+00 1.48885980e+01 1.12695700e+00 7.41477000e+00 8.74575000e-01 3.67845200e+00 6.50720000e+00 1.48134980e+01 3.33179200e+00 6.34298000e+00 1.19991000e+00 8.76410200e+00 7.64005000e+00 1.17940300e+00 8.08292200e+00 5.82830000e+00 5.06653800e+00 7.76473200e+00 6.01526000e+00 6.58165800e+00 8.30754200e+00 2.07035000e+00 1.33326400e+00 7.03255200e+00 2.00349000e+00 1.08342500e+00 8.59536200e+00 9.05655000e+00 2.68779800e+00 3.42292200e+00 9.57272000e+00 1.41194800e+00 2.69700200e+00 1.24466800e+01 5.11873800e+00 1.13490400e+00 1.38579800e+01 5.26206800e+00 3.72413000e-01 1.38682800e+01 5.88333800e+00 2.71602200e+00 1.44677800e+01 7.02329800e+00 3.62461200e+00 1.32716800e+01 3.67044800e+00 5.52134200e+00 1.34494800e+01 5.08449800e+00 4.91243200e+00 1.05980800e+01 1.52211980e+01 5.68041200e+00 1.00507100e+01 1.25410300e+00 5.06072200e+00 1.10625800e+01 5.34897800e+00 5.57924200e+00 9.82041000e+00 5.42341800e+00 6.41585200e+00 1.36826800e+01 1.72676800e+00 1.56629200e+00 1.33538800e+01 3.11555800e+00 1.04281700e+00 1.37070800e+01 1.35022300e+00 5.94602200e+00 1.22859800e+01 1.35878300e+00 5.29196200e+00 8.07113000e+00 5.50503800e+00 7.92958200e+00 9.39271000e+00 5.50335800e+00 8.85319200e+00 9.34133000e+00 4.89848800e+00 4.02631200e+00 8.10361000e+00 4.88519800e+00 3.15130200e+00 1.00782700e+01 5.54092800e+00 1.72324200e+00 1.04558800e+01 6.84695800e+00 1.06269700e+00 1.17466800e+01 1.52713800e+00 1.16135200e+00 1.02566800e+01 1.60360800e+00 6.40008000e-01 1.39425800e+01 1.15623600e+00 3.71229200e+00 1.44428800e+01 1.52123240e+01 2.91624200e+00 1.40557800e+01 1.63736800e+00 8.23823200e+00 1.55087800e+01 1.23745000e+00 7.84847200e+00 1.52835800e+01 5.06472800e+00 7.89276200e+00 1.39313800e+01 5.16734800e+00 7.10581200e+00 1.02646800e+01 1.95326800e+00 7.37510200e+00 9.26350000e+00 3.01245800e+00 7.97582200e+00 2.10823000e+00 9.33391800e+00 4.27620200e+00 1.64709000e+00 9.05975800e+00 2.80203200e+00 4.31120000e+00 1.26033980e+01 8.96955000e-01 5.71490000e+00 1.25132980e+01 2.07065000e-01 5.77091000e+00 1.26317980e+01 3.89180200e+00 5.84369000e+00 1.27448980e+01 2.38317200e+00 5.25256000e+00 1.13476980e+01 5.98239200e+00 5.66930000e+00 1.28617980e+01 6.32014200e+00 3.07403000e+00 7.37583800e+00 5.99164200e+00 2.39408000e+00 8.57202800e+00 6.58519200e+00 2.60188000e+00 1.41071980e+01 5.34928200e+00 3.53449000e+00 1.28506980e+01 5.29087200e+00 4.78248000e+00 1.03732080e+01 1.23885200e+00 4.00647000e+00 9.02077800e+00 1.42176200e+00 5.55896000e+00 9.12000800e+00 6.69629200e+00 4.43362000e+00 9.17028800e+00 5.83984200e+00 6.82448000e-01 1.26079980e+01 7.70274200e+00 1.91722000e+00 1.24395980e+01 6.83260200e+00 1.63154000e+00 1.24785980e+01 3.53613200e+00 1.30134000e+00 1.12150980e+01 2.82132200e+00 2.12930000e+00 1.27614980e+01 1.35562200e+00 2.44539000e+00 1.29031980e+01 8.95407200e+00 2.07210000e+00 8.56540800e+00 4.59701000e-01 2.41157000e+00 7.25909800e+00 1.39654200e+00 5.94656000e+00 8.81799800e+00 2.65659200e+00 6.29259000e+00 8.85618800e+00 4.20107200e+00 5.54894000e+00 8.69212800e+00 9.03245200e+00 6.92427000e+00 8.54079800e+00 8.29253200e+00 6.72797000e+00 1.45159980e+01 7.94505200e+00 7.65590000e+00 1.31392980e+01 7.96263200e+00 1.53037000e+00 1.03687080e+01 7.76249200e+00 6.02803000e-01 9.16211800e+00 8.09335200e+00 8.15208000e+00 9.32919800e+00 3.42593200e+00 8.81638000e+00 1.07093980e+01 3.41673200e+00 1.29583800e+01 1.10317980e+01 7.99978000e-01 1.36110800e+01 1.21197980e+01 1.53769200e+00 1.50945800e+01 1.26471980e+01 3.33037200e+00 1.37295800e+01 1.24197980e+01 3.83420200e+00 1.29863800e+01 1.10189980e+01 5.53927200e+00 1.34878800e+01 1.24502980e+01 6.53538200e+00 1.02587800e+01 7.81850800e+00 5.52203200e+00 9.67914000e+00 9.15744800e+00 4.80201200e+00 1.13977800e+01 1.27398980e+01 5.63330200e+00 9.90041000e+00 1.28400980e+01 4.97118200e+00 1.19369800e+01 8.92987800e+00 1.11152000e+00 1.31924800e+01 8.94986800e+00 1.33415000e-01 1.18743800e+01 9.34575800e+00 5.55657200e+00 1.32551800e+01 9.11451800e+00 4.84539200e+00 9.60412000e+00 1.24219980e+01 7.15188200e+00 9.54188000e+00 1.25727980e+01 8.76091200e+00 9.65583000e+00 1.26449980e+01 2.75874200e+00 8.07536000e+00 1.27810980e+01 3.25776200e+00 1.14549800e+01 1.29705980e+01 1.26822200e+00 1.07115800e+01 1.42292980e+01 1.23490200e+00 9.75278000e+00 8.90518800e+00 3.54747000e-01 9.96698000e+00 9.27353800e+00 1.97552200e+00 1.39532800e+01 9.07582800e+00 2.63623200e+00 1.52023800e+01 9.44448800e+00 3.60618200e+00 1.40179800e+01 8.73165800e+00 6.95961200e+00 1.47727800e+01 7.65849800e+00 7.73500200e+00 1.38524800e+01 1.28033980e+01 8.47190200e+00 1.42592800e+01 1.42631980e+01 8.01061200e+00 8.94997000e+00 1.03514280e+01 7.83642200e+00 9.17004000e+00 9.06967800e+00 7.09010200e+00
1.56056600e+00 1.82895100e+00 3.27266100e+00 5.10743600e+00 4.81126100e+00 9.87651000e-01 5.94737600e+00 5.95849100e+00 3.49862100e+00 4.96817600e+00 4.72810100e+00 5.61420100e+00 3.03521600e+00 7.97828000e-01 5.50748100e+00 2.46865600e+00 5.47663100e+00 5.63687100e+00 5.07918600e+00 2.01558100e+00 8.94803000e-01 5.54109600e+00 2.02170100e+00 5.51384100e+00 1.23997600e+00 4.38343100e+00 7.80318100e+00 1.36660600e+00 4.86016100e+00 3.21884100e+00 2.49439600e+00 5.43890100e+00 7.77995000e-01 2.59745600e+00 7.80911000e-01 6.04431000e-01 6.36887600e+00 8.58732000e-01 3.10155100e+00 6.40822600e+00 1.14151200e+00 7.88799100e+00 6.53288600e+00 5.96573100e+00 7.78882100e+00 1.49604600e+00 1.52332100e+00 7.86802100e+00 8.90708600e+00 1.71926100e+00 3.77041100e+00 1.26592360e+01 4.58062100e+00 6.44643000e-01 1.37556360e+01 5.64442100e+00 3.16580100e+00 1.25771360e+01 4.64427100e+00 5.57461100e+00 1.02701360e+01 7.14593000e-01 5.98594100e+00 9.97660600e+00 5.49711100e+00 5.71466100e+00 1.30806360e+01 1.77558100e+00 1.11540100e+00 1.28944360e+01 1.79712100e+00 5.76767100e+00 8.91194600e+00 4.70774100e+00 8.12450100e+00 8.53911600e+00 4.54544100e+00 3.56965100e+00 1.00830360e+01 5.60690100e+00 1.27326100e+00 1.04956360e+01 1.32029100e+00 1.68485100e+00 1.42226360e+01 8.61491000e-01 3.55722100e+00 1.43250360e+01 5.88913000e-01 8.01449100e+00 1.39803360e+01 5.92945100e+00 7.54895100e+00 9.16175600e+00 1.88549100e+00 8.42205100e+00 1.52814600e+00 9.56604100e+00 3.79935100e+00 4.90101600e+00 1.21285810e+01 1.13675200e+00 6.19428600e+00 1.33286810e+01 3.14064100e+00 5.31302600e+00 1.22447810e+01 5.65617100e+00 2.52331600e+00 8.28004100e+00 5.82907100e+00 2.60772600e+00 1.32607810e+01 5.44528100e+00 5.04988600e+00 9.34009100e+00 1.38716100e+00 5.13667600e+00 9.49145100e+00 5.98233100e+00 1.30433600e+00 1.20662810e+01 7.63630100e+00 1.26851600e+00 1.24044810e+01 3.15767100e+00 2.43895600e+00 1.31291810e+01 7.21744000e-01 2.58230600e+00 8.14516100e+00 1.26346100e+00 6.35430600e+00 8.63957100e+00 3.66799100e+00 6.52748600e+00 8.82465100e+00 8.42521100e+00 6.19530600e+00 1.35145810e+01 8.08613100e+00 1.33131600e+00 9.47051100e+00 8.21102100e+00 8.91721600e+00 9.78479100e+00 3.45172100e+00 1.27502360e+01 1.24340810e+01 1.20058100e+00 1.41250360e+01 1.33463810e+01 3.59194100e+00 1.28988360e+01 1.22058810e+01 5.71775100e+00 9.92731600e+00 8.65801100e+00 5.71764100e+00 9.92642600e+00 1.27856810e+01 5.81699100e+00 1.30236360e+01 9.70294100e+00 1.25611100e+00 1.25628360e+01 9.31804100e+00 5.95724100e+00 8.86631600e+00 1.22123810e+01 8.31092100e+00 9.00463600e+00 1.24764810e+01 3.25079100e+00 1.02051360e+01 1.36540810e+01 9.93564000e-01 1.01165360e+01 8.43421100e+00 1.51908100e+00 1.38445360e+01 8.38624100e+00 3.68594100e+00 1.39588360e+01 8.49187100e+00 8.24337100e+00 1.40563360e+01 1.33187810e+01 7.99227100e+00 9.09648600e+00 9.61496100e+00 8.24791100e+00 6.90527000e-01 1.42765300e+00 3.31866100e+00 1.99564600e+00 1.44710300e+00 2.49763100e+00 5.28033600e+00 5.20256100e+00 1.86932100e+00 5.73838600e+00 5.31801100e+00 4.21589000e-01 5.59301600e+00 5.52590100e+00 4.29509100e+00 6.14444600e+00 6.91545100e+00 3.70129100e+00 3.99375600e+00 4.90082100e+00 5.70417100e+00 5.17338600e+00 3.78973100e+00 5.67414100e+00 2.58441600e+00 1.16963600e+00 4.66174100e+00 3.88257600e+00 1.26393800e+00 5.61403100e+00 1.75003600e+00 5.30307100e+00 4.92298100e+00 2.10785600e+00 5.17193100e+00 6.51937100e+00 5.58484600e+00 1.73880100e+00 1.68345100e+00 5.21259600e+00 2.99478100e+00 8.17046000e-01 5.87632600e+00 1.64878100e+00 6.36669100e+00 5.90173600e+00 1.56468100e+00 4.68861100e+00 1.69399600e+00 4.69926100e+00 8.63510100e+00 1.35258600e+00 3.42028100e+00 7.70223100e+00 4.26811000e-01 5.02968100e+00 3.31775100e+00 1.47372600e+00 3.83553100e+00 3.32097100e+00 3.42627600e+00 5.20437100e+00 9.34283000e-01 2.02558600e+00 5.13633100e+00 1.62982100e+00 3.46991600e+00 1.24756200e+00 6.44544000e-01 2.70980600e+00 1.50592810e+01 6.35029000e-01 7.27551600e+00 9.69299000e-01 3.31783100e+00 6.24855600e+00 1.51035810e+01 3.11018100e+00 5.92174600e+00 1.42934900e+00 8.67434100e+00 7.27668600e+00 1.49413100e+00 7.98469100e+00 5.99482600e+00 5.83677100e+00 6.98177100e+00 6.63110600e+00 6.92118100e+00 7.92474100e+00 2.08702600e+00 1.09672000e+00 7.17435100e+00 1.92534600e+00 1.13190400e+00 8.71045100e+00 8.65088600e+00 2.61880100e+00 3.99831100e+00 9.56790600e+00 1.76467100e+00 3.00624100e+00 1.17755360e+01 4.83963100e+00 9.64486000e-01 1.29393360e+01 4.96374100e+00 9.00791100e+00 1.35146360e+01 5.50909100e+00 2.22161100e+00 1.39697360e+01 6.59195100e+00 3.25413100e+00 1.27737360e+01 3.71514100e+00 5.60195100e+00 1.29770360e+01 4.98078100e+00 4.79050100e+00 1.01417360e+01 1.50385810e+01 5.80566100e+00 9.83059600e+00 1.17083700e+00 5.29102100e+00 1.08907360e+01 5.23480100e+00 5.57663100e+00 9.71418600e+00 5.18071100e+00 6.62222100e+00 1.36091360e+01 1.62111100e+00 1.91719100e+00 1.30658360e+01 2.71865100e+00 8.99139000e-01 1.34224360e+01 1.37828600e+00 6.50012100e+00 1.20708360e+01 1.27140800e+00 5.80518100e+00 8.02192600e+00 5.07282100e+00 8.08174100e+00 9.25529600e+00 5.07172100e+00 8.97614100e+00 8.91127600e+00 5.06549100e+00 4.29396100e+00 7.61228600e+00 4.83622100e+00 3.53329100e+00 9.69514600e+00 5.22016100e+00 2.08238100e+00 9.91945600e+00 6.55827100e+00 1.38237100e+00 1.14696360e+01 1.48864100e+00 1.52847100e+00 1.01700360e+01 1.60993100e+00 7.54011000e-01 1.36383360e+01 1.01138400e+00 4.29342100e+00 1.41899360e+01 1.51833810e+01 3.36161100e+00 1.38466360e+01 9.67833000e-01 8.71834100e+00 1.52074360e+01 9.96322000e-01 7.88935100e+00 1.48608360e+01 5.53700100e+00 7.46312100e+00 1.34087360e+01 5.54037100e+00 6.82464100e+00 9.58292600e+00 1.58159100e+00 7.56073100e+00 9.15483600e+00 2.84807100e+00 8.30019100e+00 1.96446600e+00 9.17369100e+00 4.59753100e+00 1.88340600e+00 9.21274100e+00 2.96448100e+00 4.00786600e+00 1.24240810e+01 9.71220000e-01 5.35895600e+00 1.25396810e+01 3.00663000e-01 5.88199600e+00 1.29238810e+01 3.94668100e+00 5.69004600e+00 1.29359810e+01 2.41996100e+00 5.28192600e+00 1.12330810e+01 5.70323100e+00 5.67745600e+00 1.25674810e+01 6.52105100e+00 2.39142600e+00 7.31446100e+00 5.84232100e+00 2.05685600e+00 8.67181100e+00 6.59153100e+00 2.86136600e+00 1.42057810e+01 5.55358100e+00 3.50048600e+00 1.28931810e+01 5.63324100e+00 4.96970600e+00 1.03023410e+01 1.19099100e+00 4.29090600e+00 8.83355100e+00 1.08855700e+00 5.48966600e+00 9.36356100e+00 6.88684100e+00 4.30657600e+00 9.04660100e+00 6.00733100e+00 4.09746000e-01 1.24597810e+01 7.64345100e+00 1.77103600e+00 1.24508810e+01 6.82462100e+00 1.85632600e+00 1.27696810e+01 3.82957100e+00 1.28769600e+00 1.14213810e+01 3.20080100e+00 1.99917600e+00 1.29487810e+01 1.57482100e+00 1.91280600e+00 1.27412810e+01 1.46970000e-02 2.08186600e+00 8.51897100e+00 5.05289000e-01 2.51145600e+00 7.18596100e+00 1.12787100e+00 5.73841600e+00 8.91640100e+00 2.99970100e+00 6.03184600e+00 8.96857100e+00 4.54026100e+00 6.13853600e+00 8.91241100e+00 1.34216000e-01 7.45431600e+00 9.02664100e+00 8.44245100e+00 6.03817600e+00 1.44970810e+01 8.17403100e+00 7.07791600e+00 1.33109810e+01 8.44423100e+00 1.37324600e+00 1.04836810e+01 8.04486100e+00 4.16613000e-01 9.16498100e+00 8.11722100e+00 8.06387600e+00 9.50686100e+00 3.33973100e+00 8.96251600e+00 1.07201810e+01 3.25075100e+00 1.29434360e+01 1.14357810e+01 1.31116100e+00 1.32387360e+01 1.28404810e+01 1.94724100e+00 1.50491360e+01 1.29085810e+01 3.53995100e+00 1.36326360e+01 1.29701810e+01 4.33373100e+00 1.28928360e+01 1.11959810e+01 5.78221100e+00 1.33128360e+01 1.26147810e+01 6.47570100e+00 9.91782600e+00 7.68379100e+00 5.75794100e+00 9.54519600e+00 9.05797100e+00 4.96042100e+00 1.08155360e+01 1.24678810e+01 5.74673100e+00 9.58424600e+00 1.28278810e+01 4.88617100e+00 1.20860360e+01 9.23435100e+00 1.40418100e+00 1.33216360e+01 9.32203100e+00 4.19974000e-01 1.16033360e+01 9.30049100e+00 6.04769100e+00 1.27023360e+01 8.96657100e+00 5.07808100e+00 8.97124600e+00 1.26652810e+01 7.42823100e+00 9.47957600e+00 1.27356810e+01 8.89619100e+00 9.44464600e+00 1.29418810e+01 2.45558100e+00 8.06190600e+00 1.27662810e+01 3.12770100e+00 1.10449360e+01 1.31771810e+01 9.54116000e-01 1.05162360e+01 1.45354810e+01 1.25237100e+00 9.82099600e+00 8.64979100e+00 6.28997000e-01 9.60835600e+00 9.07566100e+00 2.06110100e+00 1.36903360e+01 8.83617100e+00 2.76639100e+00 1.47252360e+01 8.72292100e+00 3.86798100e+00 1.34027360e+01 8.62429100e+00 7.50604100e+00 1.41229360e+01 7.53084100e+00 8.20452100e+00 1.34125360e+01 1.30569810e+01 8.64421100e+00 1.41464360e+01 1.42725810e+01 8.08742100e+00 9.12190600e+00 1.06357810e+01 8.21353100e+00 9.48499600e+00 9.19030100e+00 7.46962100e+00
1.46895300e+00 1.92900200e+00 3.29106600e+00 5.90242300e+00 4.67415200e+00 1.09786400e+00 6.82959300e+00 5.37249200e+00 3.81182600e+00 5.27713300e+00 4.37677200e+00 5.76942600e+00 2.52423300e+00 1.12093200e+00 5.51556600e+00 2.70884300e+00 5.37714200e+00 5.96691600e+00 5.14770300e+00 1.96033200e+00 1.12051700e+00 5.28782300e+00 1.65658200e+00 5.75584600e+00 1.01173100e+00 4.42295200e+00 7.91231600e+00 1.29094600e+00 4.78589200e+00 3.23049600e+00 2.86286300e+00 5.35646200e+00 7.85927000e-01 2.48868300e+00 6.64215000e-01 7.94861000e-01 6.89647300e+00 9.20227000e-01 3.59509600e+00 6.38713300e+00 9.22684000e-01 8.21371600e+00 7.02976300e+00 5.68598200e+00 7.80894600e+00 1.09227200e+00 1.61458200e+00 7.72103600e+00 9.47604300e+00 1.97677200e+00 3.33252600e+00 1.32172330e+01 4.53762200e+00 6.93468000e-01 1.46818330e+01 5.47599200e+00 2.92381600e+00 1.33541330e+01 4.39363200e+00 5.41602600e+00 1.07624330e+01 8.38630000e-01 5.46683600e+00 1.06165330e+01 5.33597200e+00 6.06992600e+00 1.34387330e+01 1.82644200e+00 6.38556000e-01 1.34910330e+01 1.57467200e+00 5.42715600e+00 9.36743300e+00 4.08224200e+00 8.31859600e+00 9.03327300e+00 4.67752200e+00 3.52292600e+00 1.04958330e+01 5.42748200e+00 1.25350600e+00 1.10290330e+01 9.81129000e-01 7.36361000e-01 1.49487330e+01 9.06067000e-01 3.31973600e+00 1.45376330e+01 4.62940000e-01 7.60784600e+00 1.43796330e+01 5.76122200e+00 7.67094600e+00 9.40513300e+00 1.20182100e+00 7.91059600e+00 1.99004300e+00 9.32643200e+00 4.05891600e+00 5.44077300e+00 1.20176620e+01 1.31197600e+00 6.97472300e+00 1.28956620e+01 3.41208600e+00 5.45581300e+00 1.20935620e+01 5.67935600e+00 2.87209300e+00 7.99395200e+00 6.48625600e+00 2.82062300e+00 1.31591620e+01 5.40833600e+00 5.58961300e+00 9.19912200e+00 1.29192600e+00 5.37931300e+00 9.39978200e+00 6.16087600e+00 1.59549300e+00 1.18360620e+01 8.28338600e+00 1.20117400e+00 1.19284620e+01 3.50058600e+00 2.75430300e+00 1.28287620e+01 1.29313600e+00 3.20908300e+00 8.14961200e+00 1.34989600e+00 6.44495300e+00 8.14705200e+00 3.87980600e+00 6.73696300e+00 8.36192200e+00 8.13222600e+00 6.58999300e+00 1.29874620e+01 8.25152600e+00 1.49104300e+00 8.95837200e+00 8.44226600e+00 9.10232300e+00 9.16544200e+00 3.95840600e+00 1.31275330e+01 1.19357620e+01 1.38346600e+00 1.46419330e+01 1.29027620e+01 3.48461600e+00 1.33434330e+01 1.20619620e+01 5.72209600e+00 1.08358330e+01 8.07848200e+00 5.54709600e+00 1.06559330e+01 1.29152620e+01 5.51421600e+00 1.32403330e+01 8.98064200e+00 1.31548600e+00 1.34698330e+01 9.13775200e+00 5.77353600e+00 9.23559300e+00 1.22881620e+01 7.86786600e+00 9.49445300e+00 1.18042620e+01 3.18326600e+00 1.06738330e+01 1.30659620e+01 9.37584000e-01 1.05854330e+01 8.26740200e+00 1.58373600e+00 1.46974330e+01 8.34066200e+00 3.53109600e+00 1.45895330e+01 8.45914200e+00 8.13912600e+00 1.46290330e+01 1.26735620e+01 8.08702600e+00 9.44555300e+00 9.26879200e+00 8.09853600e+00 5.35968000e-01 1.54705200e+00 3.36333600e+00 1.72467300e+00 1.60608200e+00 2.41866600e+00 6.37920300e+00 4.97932200e+00 1.91238600e+00 6.28430300e+00 5.08086200e+00 3.05519000e-01 6.36416300e+00 4.89691200e+00 4.55379600e+00 6.49038300e+00 6.29656200e+00 3.89350600e+00 4.37982300e+00 4.71618200e+00 5.65204600e+00 5.26829300e+00 3.46098200e+00 5.75205600e+00 2.20279300e+00 1.50585200e+00 4.66250600e+00 3.45887300e+00 1.40010200e+00 5.58573600e+00 2.21611300e+00 5.35556200e+00 5.12813600e+00 2.10120300e+00 4.99209200e+00 6.60911600e+00 5.60406300e+00 1.59923200e+00 1.93971600e+00 5.58751300e+00 2.85353200e+00 1.01219700e+00 5.65042300e+00 1.16327400e+00 6.52978600e+00 5.83473300e+00 1.27290200e+00 5.04019600e+00 1.78357300e+00 4.45447200e+00 8.48588600e+00 8.96247000e-01 3.50730200e+00 7.69218600e+00 3.48745000e-01 5.00677200e+00 3.23464600e+00 1.39495300e+00 3.87216200e+00 3.48564600e+00 3.79484300e+00 5.06698200e+00 7.14945000e-01 2.52056300e+00 4.95930200e+00 1.61800600e+00 3.39490300e+00 9.43867000e-01 9.84358000e-01 2.53332300e+00 1.45079620e+01 1.06456700e+00 7.79921300e+00 1.28647200e+00 3.47919600e+00 7.03635300e+00 1.47180620e+01 3.55612600e+00 5.97244300e+00 1.23444200e+00 9.06659600e+00 7.35549300e+00 9.09350000e-01 8.30982600e+00 6.46287300e+00 5.21367200e+00 7.14965600e+00 6.82777300e+00 6.60777200e+00 7.81908600e+00 1.65660300e+00 1.61017200e+00 6.80568600e+00 1.63453300e+00 1.16146800e+00 8.32080600e+00 9.39301300e+00 2.92066200e+00 3.21301600e+00 9.97279300e+00 1.74261200e+00 2.51608600e+00 1.23452330e+01 4.93543200e+00 7.70824000e-01 1.36127330e+01 5.00516200e+00 9.15504700e+00 1.44606330e+01 5.08404200e+00 2.03372600e+00 1.46245330e+01 6.45580200e+00 2.82510600e+00 1.34734330e+01 3.45020200e+00 5.59523600e+00 1.38345330e+01 4.62137200e+00 4.58011600e+00 1.06462330e+01 1.46524620e+01 5.39581600e+00 1.02689330e+01 1.21009700e+00 4.76206600e+00 1.14476330e+01 4.85029200e+00 5.92249600e+00 1.00269430e+01 4.92118200e+00 6.65780600e+00 1.38662330e+01 1.65738200e+00 1.56486600e+00 1.33843330e+01 2.88623200e+00 7.36022000e-01 1.38786330e+01 1.20317000e+00 6.22585600e+00 1.25378330e+01 1.30843200e+00 5.39662600e+00 8.55882300e+00 4.56686200e+00 8.13893600e+00 9.68405300e+00 4.60627200e+00 9.09731600e+00 9.48090300e+00 4.96709200e+00 4.39987600e+00 8.21662300e+00 5.22589200e+00 3.64826600e+00 1.00764030e+01 5.15316200e+00 2.10873600e+00 1.02480730e+01 6.41120200e+00 1.22100600e+00 1.18577330e+01 1.31010200e+00 4.33764000e-01 1.03293130e+01 1.09111100e+00 9.60800000e-03 1.43968330e+01 1.24969200e+00 4.01595600e+00 1.50102330e+01 1.47108620e+01 3.36143600e+00 1.43484330e+01 1.11779300e+00 8.32940600e+00 1.55060330e+01 6.45113000e-01 7.44974600e+00 1.52237330e+01 5.30769200e+00 7.66708600e+00 1.39023330e+01 5.33602200e+00 6.89126600e+00 9.91612300e+00 1.09791000e+00 7.06890600e+00 9.45679300e+00 2.16969200e+00 7.96774600e+00 2.26846300e+00 8.83169200e+00 4.86417600e+00 2.48802300e+00 8.86437200e+00 3.34709600e+00 4.50902300e+00 1.24013620e+01 1.33944600e+00 5.86156300e+00 1.23350620e+01 4.90125000e-01 6.62374300e+00 1.25435620e+01 4.25064600e+00 6.46234300e+00 1.25743620e+01 2.67539600e+00 5.36625300e+00 1.10877620e+01 5.83098600e+00 5.59970300e+00 1.22857620e+01 6.63444600e+00 2.73658300e+00 7.04227200e+00 6.56646600e+00 2.41696300e+00 8.39157200e+00 7.26694600e+00 2.73438300e+00 1.41219620e+01 5.47189600e+00 3.73931300e+00 1.28687620e+01 5.51528600e+00 5.46848300e+00 1.01942720e+01 1.34334600e+00 4.66317300e+00 8.79039200e+00 1.18118300e+00 5.99699300e+00 9.01169200e+00 6.81430600e+00 4.55688300e+00 8.86780200e+00 6.20010600e+00 5.97174000e-01 1.19830620e+01 8.29569600e+00 1.95790300e+00 1.22464620e+01 7.48881600e+00 1.62441300e+00 1.25911620e+01 4.07774600e+00 1.66246300e+00 1.10898620e+01 3.72921600e+00 2.20376300e+00 1.23611620e+01 1.96392600e+00 2.64274300e+00 1.23807620e+01 3.95542000e-01 2.56505300e+00 8.49856200e+00 6.10449000e-01 3.22426300e+00 7.14138200e+00 1.27510600e+00 6.29078300e+00 8.53800200e+00 2.99923600e+00 5.98119300e+00 8.76976200e+00 4.51943600e+00 6.48955300e+00 8.75989200e+00 9.00555600e+00 7.64773300e+00 8.73121200e+00 8.12249600e+00 6.44817300e+00 1.39137620e+01 8.08557600e+00 7.50858300e+00 1.27469620e+01 8.01851600e+00 1.58743300e+00 9.94119200e+00 8.40696600e+00 5.79697000e-01 8.75036200e+00 8.26498600e+00 8.12069300e+00 8.89348200e+00 3.88608600e+00 9.20706300e+00 1.00074420e+01 3.51646600e+00 1.32700330e+01 1.09938620e+01 1.40811600e+00 1.37075330e+01 1.23019620e+01 2.07470600e+00 1.55314330e+01 1.24559620e+01 3.46082600e+00 1.42718330e+01 1.26920620e+01 4.35084600e+00 1.32404330e+01 1.10502620e+01 5.76201600e+00 1.38371330e+01 1.22943620e+01 6.50926600e+00 1.07362330e+01 7.17741200e+00 5.74134600e+00 1.01558730e+01 8.33327200e+00 4.89761600e+00 1.16244330e+01 1.26290620e+01 5.60051600e+00 1.02730130e+01 1.24149620e+01 4.77008600e+00 1.23267330e+01 8.64960200e+00 1.46565600e+00 1.35851330e+01 8.68217200e+00 4.53148000e-01 1.24973330e+01 8.88369200e+00 5.76388600e+00 1.38405330e+01 8.77062200e+00 4.88981600e+00 9.70896300e+00 1.28225620e+01 7.21424600e+00 9.70330300e+00 1.24333620e+01 8.74770600e+00 9.91405300e+00 1.21293620e+01 2.38273600e+00 8.71510300e+00 1.23537620e+01 3.26677600e+00 1.15413330e+01 1.26253620e+01 9.86346000e-01 1.08662330e+01 1.40274620e+01 8.38421000e-01 1.01206930e+01 8.48874200e+00 7.47985000e-01 9.91029300e+00 8.48660200e+00 2.28194600e+00 1.40992330e+01 8.68917200e+00 2.78379600e+00 1.56071330e+01 8.64258200e+00 3.35319600e+00 1.44597330e+01 8.76903200e+00 7.20984600e+00 1.46024330e+01 7.51336200e+00 8.03077600e+00 1.41542330e+01 1.23931620e+01 8.92960600e+00 1.44117330e+01 1.36428620e+01 8.05140600e+00 9.23174300e+00 1.02117320e+01 8.00501600e+00 9.83879300e+00 9.05428200e+00 7.21705600e+00
