-3.00469051e+04
-3.00474990e+04
-3.00464141e+04
