2.06506189e+00 7.66711768e-01 -4.84417473e-01 -1.03222396e+00 -9.11281825e-01 2.07514782e-01 4.18189964e-01 7.99170919e-01 -1.13587079e+00 -1.73494508e+00 5.27936997e-01 -4.40346190e-01 -1.60543294e+00 -7.90259475e-02 -5.78359420e-01 1.73491885e-01 1.95466591e-01 -4.57163777e-01 -6.92440305e-01 1.32133322e+00 -3.25126820e-01 -6.29863762e-02 3.57367428e-01 -1.29758342e+00 -7.93702183e-01 -1.05061763e+00 -1.62564799e+00 1.17611473e+00 -1.01723545e+00 1.27254190e-01 1.85496881e-01 3.48124311e-01 -2.93121211e-01 1.77356099e+00 3.05546428e+00 2.16565066e-01 -8.83864607e-01 -1.52478874e+00 -3.78663363e-01 2.09740894e+00 2.53932454e-02 7.79775544e-01 -6.44641950e-01 1.90145333e+00 -1.60008505e-01 5.04443797e-01 3.71414909e-01 -2.74474541e-01 -3.10541465e-01 -2.60823011e-01 2.14810030e-01 2.24635039e+00 -1.82238264e-01 -7.42127906e-01 4.26673062e-01 1.67072971e+00 5.91512156e-01 1.58445788e-01 -1.90092111e+00 -2.57998396e-01 9.41328768e-01 4.11096804e-01 1.03858127e+00 -8.01779561e-01 7.00437465e-01 -9.99725210e-01 8.92110650e-01 2.57594990e+00 4.63270662e-01 -1.27259847e+00 9.19072783e-01 -2.01323256e+00 -9.90372050e-01 -1.12528453e-01 -3.10204136e-01 8.59729660e-01 -4.49403159e-01 -2.41498598e-02 2.62955998e-01 -2.03407033e+00 2.18353011e-01 -9.31061323e-01 -5.52672554e-01 5.60334442e-01 1.62579094e-01 4.64108842e-01 -2.96663163e-01 1.23548151e+00 1.06938360e+00 1.50057923e+00 8.10849385e-01 4.35547997e-01 9.33667908e-01 2.33071704e+00 -3.12382786e+00 -1.21886806e+00 -6.38464103e-01 1.40340849e+00 1.82772283e+00 2.25404982e+00 3.20707608e-01 -1.42590205e+00 -1.19858206e+00 -1.64716092e+00 -1.05152472e+00 3.08662503e-01 1.80853520e+00 3.04917434e-02 6.45942929e-01 7.08992040e-02 -7.79585797e-01 -9.36797455e-01 -2.50046488e-01 -5.36033916e-02 -6.81379418e-01 -1.65700311e+00 -4.09985573e-01 -6.17435049e-02 -4.92559643e-01 -3.98666033e-01 -9.59777463e-01 -4.17125013e-01 1.54394655e+00 5.07017472e-01 -2.66301518e-01 2.93805125e-02 2.11502049e-01 -3.61189630e-01 1.00085341e+00 -1.19684502e+00 -6.14930794e-01 -2.60954857e+00 -3.52230878e-01 -2.06213803e-01 6.75971359e-01 -1.56759247e+00 4.85395006e-01 1.13434818e+00 8.71156672e-02 1.14413997e+00 1.66502083e-01 2.07160021e+00 1.15818334e+00 -1.54173128e-01 1.02026730e+00 -2.77023533e-01 -1.71586697e-01 -1.23692235e+00 -1.09924954e+00 -1.04204763e+00 -4.69009365e-01 -2.23732788e-01 -1.18881649e-01 7.32245099e-02 1.76275721e+00 1.09724768e+00 4.80878092e-01 -1.03233349e+00 7.95828999e-01 -4.59193920e-02 -3.02031627e-01 3.41188503e-01 3.71502840e-01 6.79485029e-01 1.18595794e+00 -2.45564438e+00 -1.61247159e+00 -4.64145351e-01 -9.17388196e-01 -8.72859771e-01 -5.77994837e-01 3.63810613e-01 -5.26630362e-01 -1.12901931e+00 -2.19890017e-01 -1.72048468e-01 -1.45775905e-01 -1.25593412e+00 7.30042177e-01 1.06039759e+00 1.30673758e-02 -1.25652393e-01 3.05945875e-01 4.47261944e-01 -6.79197580e-01 9.20856100e-02 -1.01962915e+00 -2.07715842e-01 4.70688295e-01 -1.31399323e-01 2.55210806e-01 3.67555168e-01 -1.54574272e+00 -6.00497134e-01 -1.91878874e-01 -6.37669632e-01 -4.02897041e-02 6.49868489e-01 6.25990138e-01 3.47406974e-01 -2.34674889e-01 6.51628667e-01 5.90631810e-01 -4.02370479e-01 -2.77591747e-01 2.00405167e-01 9.58091333e-01 -1.03950224e-01 -7.24568298e-01 2.46736964e-01 2.01587257e+00 -1.02002561e+00 5.53671171e-01 -5.94799054e-01 1.46712301e-01 -1.37301034e-01 5.60079903e-01 -6.41122110e-01 6.34409987e-01 8.11096725e-01 4.87053368e-01 8.38966457e-02 4.47457862e-01 -1.38912087e-01 1.18279703e+00 -2.18056306e-01 -2.58476622e-01 -5.60211543e-01 6.04388242e-01 -7.53161025e-01 1.20596472e+00 -7.83158088e-02 -7.67705242e-01 -5.39635517e-01 5.21821885e-01 -3.07203659e-01 1.45664165e+00 -2.45164991e-01 7.44756088e-02 -4.06441050e-01 9.77851805e-01 9.01426786e-01 1.86628732e+00 -6.27153819e-02 -1.70753146e-01 -3.40111211e-01 -1.67868368e+00 5.89000702e-01 -7.18510264e-02 -5.12060948e-02 7.26465258e-02 9.70473253e-02 -6.30900431e-01 -2.46788900e-01 4.65203103e-01 6.21293761e-01 5.26628305e-01 -3.72334335e-01 -1.80324644e+00 -9.50917441e-01 -1.72185250e-01 9.99228473e-02 -1.40276829e+00 -1.55073529e-01 8.64853869e-01 1.28216811e-01 -2.06653462e-01 -4.29991328e-02 1.53559098e+00 5.42422593e-01 -9.47464449e-01 4.47107678e-01 2.85064916e-01 -7.38208002e-01 -6.23708541e-02 -9.86214062e-01 -2.78152247e-02 3.43354915e-01 -1.79085063e-01 6.57339087e-01 -2.17779243e+00 3.26342438e-01 -6.74276488e-01 -1.22902855e-01 5.84848884e-01 1.03823211e-01 -1.47375645e-02 1.38297079e-01 7.86778201e-02 2.11800297e-01 -2.91750813e-01 3.66303555e-01 1.97029308e-01 1.21502632e-01 -1.29201750e+00 5.07301321e-01 -6.15190990e-01 -1.36838287e+00 -3.00764587e-01 1.01320859e+00 9.91432888e-02 -2.62154842e-01 -3.28962906e-01 -2.35646252e-01 -1.58754732e+00 -1.71594925e-01 -6.00963532e-01 1.30770226e+00 3.35193718e-01 2.59712294e-01 4.15622974e-01 -2.97804219e-01 -5.77927474e-02 -1.17672614e+00 1.36027824e-01 -9.10144883e-01 5.15706258e-01 -1.23779653e+00 1.54063908e+00 -5.39610835e-01 -2.72171861e-02 -5.40018612e-01 -1.86245586e-02 1.00846542e+00 2.54654419e-01 -6.26884368e-01 1.39678276e-01 -5.83584930e-01 -1.55717230e+00 -6.82107554e-01 1.02716557e+00 -7.75126989e-01 1.80229050e+00 4.80048140e-01 2.13542991e-01 2.72418173e-01 9.17114630e-01 -3.95508718e-01 5.13688456e-01 -2.27774048e-02 2.54523807e-02 -6.21832150e-01 1.35722891e-01 2.52049378e-01 8.19924866e-03 -7.82873209e-01 2.84133662e-01 1.26990909e-01 -1.73376185e-01 -1.33289084e-01 1.84733777e-01 6.97900300e-03 2.06260495e+00 3.03596915e-01 -3.07932824e-01 1.64695626e-01 -2.72648029e-01 5.13867405e-01 -1.05757709e-01 -3.28141182e-01 -1.41016793e-01 3.94333724e-01 5.66762715e-01 6.25806561e-02 -9.61670823e-01 -1.66169383e-01 1.42341939e-01 -8.07006100e-01 -5.13987733e-01 -1.53862231e+00 -5.77460562e-01 -1.04814217e+00 -2.04345126e-01 1.09273436e-01 -1.63184846e-01 -3.87245706e-01 -2.42170684e-01 -5.34538048e-01 -2.09847132e+00 2.97028774e-01 1.60475314e+00 -6.39166014e-01 2.89255763e+00 -3.88902525e-01 -1.70381364e-01 -2.27877920e-01 -4.25071265e-01 7.62271987e-01 -1.45818791e+00 -1.29969378e+00 -1.08842108e+00 5.04810436e-01 -1.46944728e-01 -9.85583627e-01 -6.15992145e-01 1.29763742e+00 6.20461237e-01 7.43279760e-01 3.96087731e-01 8.21889189e-01 8.48345843e-01 6.57767947e-01 2.09201940e-01 -6.22400878e-01 2.62672148e-01 -3.89594152e-01 -1.01102110e+00 -3.63713425e-01 -1.50989588e-01 -6.74666267e-01 -3.90954266e-01 -7.65338799e-01 6.36913728e-01 9.92949839e-01 1.56839363e-01 2.62419152e-01 -1.44315004e-01 6.12771067e-01 1.67234848e-02 1.18745895e-01 1.95845058e-01 1.13370541e+00 -1.24444489e-01 4.74372686e-01 2.85318427e-01 2.95719568e-01 9.05032501e-01 3.60000752e-02 8.12781827e-01 -6.40861914e-01 3.05018735e-01 -5.79843975e-01 -9.34992026e-02 -2.02788580e-01 -9.61695506e-03 7.57077329e-01 6.43915356e-01 -1.93400710e+00 1.65901988e-01 4.10274565e-01 1.76942820e-01 -1.45364528e-01 1.65502953e-01 1.55437083e-01 4.42738859e-02 3.68582581e-01 -7.93720180e-02 -4.04188763e-01 -1.68321396e-01 -5.91460734e-01 1.02018605e+00 -6.32708431e-01 2.27288572e+00 1.21891897e-01 1.11467873e+00 -1.44497038e-01 2.98868656e-01 2.11165749e-01 4.01451052e-01 -2.04046878e-01 2.42141374e-02 -5.11447997e-01 8.93826090e-01 -6.28007426e-01 -1.01713929e+00 9.14783154e-01 3.95306115e-01 3.56128671e-02 1.45026171e-01 -1.94046520e+00 -1.04377541e-01 -8.10958400e-01 3.98000632e-01 -1.57235827e-01 -1.74005591e-01 -9.89530785e-01 4.80003403e-01 -1.97913973e+00 -1.55134207e-01 -1.91433559e-01 -1.04882660e+00 -5.68132085e-01 -4.27571406e-01 7.29931106e-02 1.00019572e+00 2.26462785e-01 -1.28557740e-01 1.78851093e-01 -4.60457875e-01 1.15801930e+00 1.02847015e+00 1.61411864e+00 7.75285369e-01 6.47074728e-02 -4.81730670e-01 -4.62529156e-01 5.02170942e-01 6.13080114e-01 6.63343642e-01 9.91589725e-01 1.40660232e+00 -6.14962676e-01 -1.76226253e+00 -2.51689423e+00 -2.97363532e-01 8.26534144e-01 -3.01021183e-01 1.27793608e-01 -2.03063688e-01 -3.54068702e-01 -5.38767513e-01 1.44460014e-01 -2.89946413e-01 7.23000954e-01 2.92162190e-01 1.58862307e-01 -4.84591279e-02 4.90000881e-02 -4.91819680e-01 3.02556132e-01 -4.70213669e-01 -6.42366524e-01 1.76485832e+00 2.78887583e-01 4.63661470e-01 3.40758615e-01 3.02851295e-01 -7.76473219e-02 5.12926896e-01 6.50283980e-01 3.41558228e-01 9.10572715e-01 3.56486054e-01 2.55894720e-01 -1.40247621e+00 5.31208469e-01 8.69475170e-01 7.12740194e-01 8.54706752e-02 6.76436729e-02 6.61214768e-01 -8.46876200e-01 -2.03669440e-01 -4.37891300e-01 1.00629232e+00 9.74936688e-02 4.10742506e-01 3.01749834e-01 8.91780520e-01 1.80729027e-01 -1.19016324e+00 -1.90846113e+00 2.84620629e-01 1.89825076e-01 -2.29458121e-01 -3.13909096e-01 -3.21597724e-01 -4.07161987e-01 -2.57747971e-01 4.16995943e-01 -1.14586878e-01 -5.01138901e-01 3.77278567e-02 1.91555429e-01 9.79305507e-01 6.17960068e-01 -1.91898414e-01 3.27636217e-01 -4.67144800e-01 -3.39098710e-01 -2.81377439e-01 7.46118772e-02 4.04865478e-01 3.54752102e-01 -3.67825648e-01 -4.07131648e-01
1.00651601e+00 2.84434996e-01 -5.80704266e-02 1.02498476e+00 7.98282860e-01 -5.33241698e-02 5.20633521e-01 5.49399540e-01 -4.46850567e-01 -1.67337692e-01 8.34495309e-01 5.65464308e-01 -1.09896054e+00 3.68117726e-01 -1.44862443e+00 -2.07669511e+00 3.39771311e-02 -1.90448312e-01 2.40633164e-01 7.28046487e-01 -1.11364257e-01 1.37866677e-01 -4.69624887e-01 -6.75601120e-01 2.76289740e-01 5.72599120e-01 3.22184450e-01 4.89912435e-01 -2.75791357e+00 4.83568495e-01 -1.13032389e+00 -6.28328299e-01 1.64254528e+00 1.26655535e+00 -5.34101989e-01 1.79513718e+00 -1.92070575e+00 -1.78964067e+00 -1.58749692e-01 -1.25480438e+00 -8.37261816e-01 -3.88951376e-01 -3.66314868e-01 1.25745981e-01 -1.39577489e-01 8.49908045e-01 -7.27917932e-01 -1.83723539e+00 7.08278816e-01 -3.48767602e-01 -3.06574253e-01 3.62167678e-01 -8.11227852e-01 1.06257635e+00 4.09832335e-01 -8.48669802e-03 -7.21563193e-01 -4.77488864e-01 5.92561166e-01 1.06946485e+00 1.02202336e+00 -4.98578082e-02 1.44490405e+00 -7.45924911e-01 3.52166086e-01 8.12331883e-01 6.29848336e-02 -2.72044334e-01 -2.82161626e-01 3.23538393e-01 -1.00366620e+00 8.39412801e-01 7.10169605e-01 -1.12328935e-01 8.54752518e-01 -3.77021971e-01 3.31929446e-03 -3.01191905e-01 -3.52619629e-01 -2.54738237e-01 4.35183929e-01 5.73989572e-01 5.90868866e-01 -2.76648100e+00 7.24131725e-01 1.06747173e+00 -1.21393720e+00 5.94346540e-02 -5.77595802e-01 -1.99771390e+00 -4.47315423e-01 -5.89801858e-01 -4.92018683e-01 8.00139197e-01 -2.56496872e-01 -1.64526242e+00 -5.16088324e-01 5.52242666e-01 -6.53387301e-01 2.18659332e+00 7.48957271e-01 -2.34518669e+00 8.94075487e-01 7.06021387e-01 -2.53104558e-02 1.21143706e-01 -1.01910464e+00 7.90197769e-01 1.28603505e-01 3.47927879e-01 5.66635702e-01 1.27945663e+00 3.86391071e-01 6.27373392e-01 1.00973812e+00 6.29493009e-01 5.80585995e-02 1.29772278e+00 6.09720710e-01 7.17136267e-01 4.67986065e-01 9.04490513e-01 -1.07678992e+00 -1.76116982e-01 -5.34193006e-01 -8.22181266e-01 3.31782378e-01 6.16160296e-01 6.85311149e-01 -4.58354712e-01 4.25380311e-01 -6.20039062e-01 7.90283129e-01 -9.05059241e-02 1.50333751e+00 -1.69599492e+00 -8.88841235e-01 3.36932813e-02 -3.40568867e-01 7.43631487e-01 6.81394330e-01 5.85241749e-01 1.07539073e+00 -3.12956245e-01 3.61008265e+00 4.39299237e-01 2.56908763e-01 5.01176439e-01 -1.40835530e+00 5.40433588e-01 1.34483413e+00 -2.87753776e-01 -9.28225396e-01 -8.70233131e-01 -1.91250753e+00 -9.60457263e-01 1.10955195e+00 -1.08014264e+00 2.51492425e+00 -1.22311450e+00 8.58689906e-01 -8.32706849e-01 -3.20571648e+00 -1.40988819e+00 1.40244999e+00 3.30674747e-02 6.83763345e-01 5.48377269e-01 5.26080660e-01 1.72057878e+00 -3.53539055e-01 -4.77488349e-01 1.47628128e+00 -1.90883291e+00 3.82133324e-01 2.03279146e-01 3.05228537e-01 2.06030741e-01 9.11404724e-02 -2.92935063e-01 -1.21169417e-01 1.02458212e+00 -2.61523636e+00 1.32870971e+00 -4.16282205e-01 1.56030134e+00 1.10138869e-01 -1.22894370e+00 -7.12840467e-01 2.32353183e-01 4.56789424e-01 6.29478097e-01 -8.15477886e-01 -2.09774267e-01 2.07149685e-01 -2.09823633e-01 1.27799264e-01 -1.02139138e-01 1.38497111e-01 -1.62492705e-01 2.11274763e-01 -8.16311951e-01 -6.11694289e-01 -1.33815646e-02 -2.66866132e-01 2.81813499e-02 2.52001041e-01 -2.75712270e-01 -9.14960560e-01 -3.45578405e-01 6.87393229e-01 -3.32881268e-01 -4.13421595e-01 -1.25879679e-01 -4.85936481e-01 -1.13813490e-01 8.89891274e-01 -6.13702321e-01 1.90367476e+00 1.26700375e-01 1.09919297e-01 -3.71667905e-01 2.04075622e+00 1.77139252e-01 1.36785219e+00 -1.30351342e-01 -6.53199097e-02 -8.91082723e-01 -4.77788140e-02 -1.72830597e-01 4.64618948e-02 -3.46360020e-01 -5.76342132e-01 2.71696721e-01 1.61508486e-01 -4.96274373e-03 -7.35556166e-01 -4.64247167e-01 4.98487579e-01 1.39103840e+00 -2.72475765e-01 -5.38194157e-01 -6.47944275e-01 5.63642424e-02 3.03750153e-02 4.14443352e-01 -7.28856384e-01 -7.46648420e-04 -3.45542409e-01 -3.74236952e-01 2.23498457e+00 -3.09285224e-01 2.09055387e-01 -5.68054437e-02 -4.41696533e-01 6.59965726e-01 6.62477180e-01 -1.29961254e+00 -2.32877174e-01 -4.74517696e-01 8.77646137e-02 1.01034078e-01 1.16981090e-01 7.69268987e-02 2.01415713e+00 5.64463634e-01 1.43473225e-01 -2.82631109e-02 1.23995934e+00 -3.01708697e-02 -2.12833880e-01 3.15898102e-01 3.33379034e-01 1.52320494e+00 2.81538905e-01 3.33842861e-01 2.25085188e-01 -2.47087148e-01 4.30757003e-01 -1.86120116e-01 1.75093168e-01 -2.34047540e-02 -1.24053321e+00 1.05307715e+00 4.49703464e-01 -6.41494920e-01 7.99904712e-01 -5.83268684e-01 1.43946822e-01 4.75711203e-01 -4.01069501e-01 -9.00982499e-01 -6.64815342e-02 8.22290795e-01 1.30640848e-01 4.21111251e-01 -8.46858716e-01 -3.13811909e-01 5.27091618e-01 -2.29819618e-01 5.05679469e-02 -1.65973979e-01 7.60134371e-01 -4.01361578e-01 2.98679937e-02 1.32609284e-01 3.44949513e-02 -1.20162059e+00 1.36392406e-01 5.59905068e-01 4.89086597e-01 -1.48560513e+00 -1.12219921e-01 -8.13771187e-01 8.30949757e-02 -9.35246566e-01 7.24906655e-01 -1.57940361e+00 3.23292595e-01 -2.70180284e-01 1.12579875e-01 1.59819786e-01 2.98596119e-01 -8.69077163e-01 -8.54526775e-02 1.43199659e-01 9.10160310e-02 8.66364135e-02 3.58140816e-01 2.24002239e-01 -3.07944651e-01 5.68838624e-01 -6.13005552e-01 -1.36168720e-01 4.80833869e-01 -4.97611347e-03 -6.22542288e-01 1.68292600e-01 -4.76458365e-01 1.67289355e-01 -3.15489296e-01 -4.31411092e-01 3.58015346e-01 -9.70725221e-02 4.64796355e-01 1.17840867e-01 1.78914342e-01 -2.34383326e-01 -1.42869015e-01 -7.83692877e-02 -2.57808649e-01 3.69364711e-01 2.35283727e-01 8.63803316e-02 -6.01260751e-01 -2.01169813e-01 6.53025804e-01 -1.44801971e-01 -7.32161281e-01 1.90332921e+00 -3.68794440e-01 4.51892501e-01 8.58367489e-01 -6.39993910e-02 -1.47520193e+00 1.44575714e-01 -5.99494918e-01 1.09348718e+00 1.69365418e+00 4.29383519e-01 1.74160372e-01 3.83510921e-01 -1.57674457e-01 -3.54104184e-01 6.06106767e-02 7.52316160e-01 3.16838611e-01 6.34614647e-01 -5.05492293e-01 -6.52695160e-02 1.34560341e+00 -2.39050907e-01 3.71374799e-01 2.04646459e-01 -1.25531551e-02 -2.53277336e-01 -9.36428245e-01 1.79142142e-01 -3.65009262e-01 7.52056993e-01 -1.30974628e+00 2.58275561e-01 7.59030854e-02 -7.86827052e-01 -1.01082878e+00 1.86367097e+00 -2.88992533e-01 -2.66388421e-01 8.62860235e-01 -3.83997888e-01 -3.95867130e-01 -4.77635931e-01 -1.56554484e-02 1.54248308e+00 1.22414345e-01 -2.67470341e-01 -3.14557014e-01 -9.38353487e-01 1.67711530e-01 -3.44702687e-02 -9.81061057e-02 9.58625609e-02 -2.36026261e-01 1.94977053e-01 -8.01019543e-01 1.49713293e-01 -2.70196225e-01 -2.52245296e-01 -5.40733379e-01 -4.56297315e-01 -3.67897639e-01 -6.02229543e-01 1.33256174e-01 -9.24980664e-01 1.31041426e-01 1.60797833e-01 3.98022229e-01 -4.69591462e-02 -2.18423973e-01 -1.51947119e+00 -6.85036041e-01 -3.06826221e-01 -7.73747849e-03 -4.50359609e-02 8.16818973e-02 -7.32940325e-01 -4.20672621e-01 1.09910607e+00 2.40595112e-01 -2.81042168e-01 6.34766856e-01 3.07298789e-01 5.39096100e-01 5.59928722e-01 -1.90574296e-01 -1.47562307e-01 -1.90766100e-01 -1.97021080e-01 -2.03439069e-01 -4.60115404e-01 3.13238552e-01 9.68812320e-02 3.56190891e-01 8.54588482e-02 -1.57708396e-01 5.92371933e-02 -7.35742828e-01 3.83761347e-01 -8.63825428e-01 4.26468917e-02 -2.01253631e-01 -6.37980736e-01 2.85458809e-01 1.39572347e-01 -5.53666029e-01 1.29787293e+00 6.52408225e-01 5.15521653e-02 7.51922267e-01 -1.25466091e+00 -3.29257555e-01 -1.86259470e-01 1.86376198e-01 -3.46835674e-01 -4.32268297e-01 -1.80784717e+00 1.22078045e-01 -2.24068059e-01 3.97916814e-01 7.57339068e-02 -3.91403489e+00 -1.25447990e+00 -2.05603938e-01 -1.27840402e-02 9.45329919e-01 1.64120727e-01 -5.98695305e-01 1.62563256e+00 -4.24607952e-01 -2.02917649e-01 -8.72251962e-02 -1.41842631e-01 -1.62432798e+00 7.38839465e-01 1.11024872e-01 1.26498286e-02 -3.32572221e-01 3.23373842e-01 2.41190580e-01 1.70445076e+00 2.57013150e-01 4.11878419e-01 -1.28678582e-02 8.87464152e-01 -2.72205285e-01 4.82590447e-01 -7.52976934e-01 -8.92919005e-01 1.84211329e-01 -1.66106545e+00 1.04884305e+00 -2.38246666e-01 3.43962209e-02 2.53539589e-01 -3.28723280e-01 7.65197902e-01 2.52302066e+00 1.51787453e+00 -4.78173291e-01 4.16397905e-01 -3.70872920e-01 -5.23306954e-01 -4.24642405e-01 -2.29602102e-01 1.28107797e-02 5.52999084e-01 -3.20669555e-01 -4.85386779e-01 2.20133243e-01 -9.97530002e-01 7.28193554e-01 -9.04462745e-01 -4.63817793e-01 -4.79651161e-01 -4.37821366e-01 -8.45992769e-01 1.29150328e+00 6.56438173e-01 -3.14893315e-01 3.96659030e-01 5.44506730e-01 -5.83689317e-01 1.65220645e-01 -6.22990175e-01 4.29972816e-01 -1.09501750e-01 -9.30945110e-03 2.72789440e-01 -5.22045057e-01 3.24951471e-01 -5.20640206e-01 4.42268347e-01 -6.80591632e-02 -9.10581971e-01 1.87169178e+00 5.19456470e-01 1.00932262e-01 4.12103648e-01 -1.09721682e+00 6.33537869e-01 -1.84617615e+00 -2.61597941e-01 5.66007839e-02 -3.01600710e-02 -1.77087830e-01 -4.69590948e-01 8.11576493e-01 2.88906144e-01 8.98410367e-01 -2.20830012e-01 1.24533963e-02 -1.49388048e+00 -2.82652193e-01 -1.32152657e-01 6.82259764e-01 -3.12023963e-01
-1.44128290e+00 -3.82342612e-01 -5.01303451e-02 1.62726675e-01 1.22385035e-01 6.87915163e-01 -2.33783642e+00 1.30332418e+00 5.32282162e-01 6.96551499e-01 3.41561622e+00 3.88128623e-02 3.52272015e-01 4.84587680e-01 1.44176164e-01 -9.87457962e-03 -9.64888816e-02 -9.09548902e-01 1.66320358e+00 2.03239037e-01 1.38745120e+00 4.78670028e-01 -1.12685753e+00 3.32987197e-01 6.73911905e-02 1.10896522e+00 -3.99775207e-01 8.61224499e-01 6.98978106e-01 3.05636314e-01 6.55343397e-01 -4.53377570e-01 4.52473056e-01 4.77535143e-01 4.93617395e-01 3.93719745e-01 3.98081364e-01 -4.49419614e-01 -2.37266562e-01 2.46006256e-01 -1.26333221e-01 3.40080357e-01 -3.21355526e-01 -2.49486450e+00 -4.90522815e-01 -9.49894141e-02 1.22504334e+00 -4.21822470e+00 6.77873461e-01 -8.99965371e-01 -1.35538800e+00 6.85621224e-01 4.74639053e-01 -6.45389627e-01 -2.91547696e-02 2.06896174e-01 -1.08275642e+00 4.47792620e-01 6.53056143e-01 -3.86929975e-01 9.05387828e-01 -1.45762535e-01 1.65732295e+00 1.22755942e+00 1.16336977e+00 -2.06264506e+00 1.89539530e+00 2.95513314e+00 2.92118018e+00 -1.10913543e+00 6.68623146e-01 -6.27408873e-01 1.33276229e-01 6.22587540e-01 5.59466952e-01 2.75573688e+00 1.05274753e+00 2.28887079e+00 -1.00019058e+00 1.72211938e+00 3.26370206e-01 -3.20339066e+00 -6.75757958e-01 2.59650588e-02 1.34722166e+00 3.92913961e-01 -1.59722238e+00 1.11342969e+00 1.41880838e+00 5.28077379e-01 -9.41373505e-01 -9.00449252e-01 -9.01367136e-01 3.36702442e-01 7.25539661e-01 -9.57263438e-01 8.57247517e-01 -1.10624397e+00 -3.89336013e-01 -1.19730216e+00 2.91304470e-01 1.75604818e-01 1.02171174e+00 5.91450964e-01 1.21106631e+00 -2.98163145e-01 -1.83578684e+00 1.64318754e+00 1.96352079e-01 7.01538411e-01 5.78914778e-02 -5.59792454e-01 -4.65780573e-01 3.36135256e-01 -5.24937034e-01 8.05302487e-01 -1.24775647e-01 -4.95209422e-01 -1.41387546e-01 -8.06291333e-01 -1.41755162e+00 -3.06423072e-01 -4.67663135e-02 6.09027541e-01 1.69939649e-02 -1.57566471e-01 3.40719020e-01 -1.07129959e+00 -9.20860214e-01 -1.54932632e+00 -5.35331490e-01 -1.66247441e+00 -2.73457927e-01 1.30464110e+00 3.43885076e-01 1.15719706e+00 1.07125279e+00 1.12348424e+00 -2.53355498e-01 -1.54011252e+00 -1.18748980e-01 1.11773731e+00 1.23160891e+00 5.74934196e-01 -2.24673040e+00 -1.32105451e+00 -6.38816858e-01 4.23012325e-01 5.41672345e-01 -4.26561476e-01 1.42924140e+00 -1.14521058e-01 -6.70832752e-01 -8.28629079e-01 -1.92884484e+00 -6.57538605e-01 3.27876358e-01 2.27967652e+00 2.78090541e-03 1.36083874e+00 -3.22459043e-01 1.68051944e-01 -2.48797960e-01 2.12028611e-02 4.42243150e-01 -9.93786990e-01 -5.04887570e-01 -1.63931443e+00 2.40972036e-01 -6.67838959e-02 1.40153365e+00 4.54119591e-01 -5.37625429e-01 2.71721918e-01 -4.18349372e-02 -2.72401203e-01 -3.24153401e-01 -1.88680730e+00 1.25562404e-01 -1.80769136e-01 -3.57414222e-01 3.68331127e-01 -1.38502356e+00 7.53605825e-01 1.00099842e+00 -3.12907394e-01 -8.97571674e-01 -1.21911952e-01 1.74166543e+00 -2.91357434e-03 1.60956213e-01 -1.05695231e+00 6.63744220e-01 5.03152589e-01 3.88519431e-02 4.64696596e-01 -4.15814264e-02 -2.91155346e-01 -5.63580717e-01 -3.28459999e-01 -9.42414288e-01 3.36754892e-01 6.64928470e-02 1.19349076e-01 1.75364162e-01 1.84964662e-01 -5.38978858e-01 3.61028679e-01 -4.24753476e-01 -9.36580968e-02 -2.51662684e-01 -5.36260173e-02 3.09416864e-01 -1.59735968e-01 -3.35347110e+00 7.18469127e-02 -4.71890029e-02 -3.23071994e-01 -4.54771623e-02 3.49536361e-02 -1.38763992e-01 8.25997812e-02 1.34940761e-01 8.65721359e-02 7.96790078e-02 -3.89511877e-01 -2.89333976e-01 3.58960998e-01 -6.72522995e-01 4.83824576e-01 -1.14474881e+00 -8.50139959e-01 -6.40971957e-01 2.53642433e-01 -4.07582620e-01 9.08067432e-01 -6.28686197e-03 -1.23128598e-01 4.72241756e-01 -3.83696555e-01 -1.36322472e-01 1.82083998e-01 6.10069866e-01 -7.42791765e-02 -1.30506533e+00 1.86206505e-01 -2.77649854e-01 -1.68402129e-02 -1.74068326e-01 -2.55992936e-01 -7.26319220e-01 -1.82139534e-01 -5.22804046e-01 6.85373884e-02 2.56196053e-01 -5.66311229e-03 3.85066439e-01 -5.23852028e-01 -1.13528612e-01 5.23407227e-01 -3.39187156e-01 -3.89322644e-01 -6.02952023e-01 -6.27621760e-02 -3.62651046e-01 9.05198080e-02 1.10124985e-01 -3.47810637e-01 3.19358807e-01 -1.14396102e-01 3.09574730e-01 -1.82150847e-01 -6.85335832e-01 -3.45929103e-01 3.44543793e-01 -5.31812164e-02 3.92591544e-01 7.64635345e-01 5.79271133e-01 -3.18254775e-01 1.40049955e+00 -6.19455936e-02 -1.35076310e+00 -5.06574728e-01 2.27817602e+00 1.31504790e+00 -9.46679748e-01 1.81342081e+00 -4.79101460e-01 1.13412553e+00 5.80854418e-01 -2.22640069e-01 -4.07538911e-01 5.72801722e-01 -6.25377701e-01 -3.65004119e-02 4.76542183e-01 -4.66783818e-02 -3.61967132e-01 1.28475464e-01 -1.74453478e-01 6.18759167e-01 1.26370039e+00 9.29196759e-03 -8.74829750e-01 3.62659273e-01 4.49701407e-02 -3.70756192e-01 -4.34352948e-01 -6.22242498e-01 -2.09620001e-01 8.23622113e-01 1.43962763e-01 -7.05567330e-01 -3.18832245e-02 -8.74005968e-01 9.54385345e-01 -1.43233649e+00 -5.19435387e-01 2.69441349e-02 2.60646633e-01 -5.20753334e-01 -1.25239011e+00 1.58932241e+00 -9.64248097e-01 -3.56577585e-01 -2.37090801e+00 -1.54459549e-01 -2.47863827e+00 -8.79144576e-01 2.25927996e-02 -5.34765848e-01 5.28449161e-01 6.12963386e-01 5.92145676e-02 1.36910740e-01 -6.64698099e-01 -8.46767185e-03 -3.17017046e-01 4.06235876e-01 -7.07876695e-01 -3.18930975e-01 -2.28110348e-01 -1.03307396e+00 -2.02535377e+00 -3.47073759e-01 -7.69426853e-01 -5.10775910e-01 1.91566742e-01 -4.33349189e-02 -4.04891703e-01 9.92016528e-01 -1.81336167e+00 1.65155339e-01 1.35336762e+00 5.40003699e-01 -2.02462049e-01 1.33970375e+00 -2.65009281e-01 8.27953908e-01 -7.01585205e-01 -2.09793294e-01 1.06086965e+00 -6.08382708e-01 -1.45137243e-01 2.55070424e-01 -2.27672232e-01 -7.43841289e-01 -2.40018156e-01 -7.42777881e-01 -1.61155217e-01 2.82485585e-01 6.06735659e-01 -7.32013699e-02 1.79580772e-01 5.58938333e-01 7.26740366e-01 7.63918007e-01 -3.34443470e-01 -5.82630536e-01 2.92774112e-01 -5.22420438e-01 2.97478717e-01 4.06808203e-01 -2.92483063e-01 4.41336579e-01 -1.89965459e-01 -5.30583691e-01 5.37402257e-01 3.85217106e-01 1.26345820e+00 -5.33944123e-01 4.66588414e-02 -2.25742876e-02 1.48820605e-01 -1.17314819e-01 -3.24260873e-01 3.87532127e-02 -3.60954117e-01 -8.41803413e-01 -4.52057052e-01 -6.20031863e-01 6.37407380e-02 1.20969848e+00 -8.81399433e-01 4.00797992e-01 6.76647045e-01 -6.84663745e-01 2.21699045e-01 -2.03088370e-01 -4.31667688e-01 1.41016278e-01 -1.90492535e-01 -4.73730425e-01 3.31878023e-01 1.33678349e-01 3.80991240e-02 1.00837646e-01 2.04305016e-01 -2.23115723e-01 1.03980048e-01 -1.17595481e+00 -1.19603101e-01 1.02485312e+00 5.47080919e-01 4.02942292e-01 -2.82912388e-01 2.95841439e-02 3.01042267e-01 2.05508293e-01 2.01505085e-01 2.71106396e-01 1.62187875e+00 2.56200681e-01 -2.50250119e-01 -3.51903319e-01 1.66797760e-02 -2.73588539e-01 1.77578397e-01 -3.52567692e-01 1.12738769e-01 -5.88729194e-01 1.82173987e-01 1.07494233e-01 1.24129786e-01 2.60466656e-01 -4.56217097e-01 -6.44246000e-01 6.82116296e-01 1.68858602e+00 1.40246593e+00 -1.32533437e+00 1.78375644e+00 -4.54865211e-01 1.60784824e+00 -2.10220097e-01 -4.20689076e-01 -1.84929181e-01 -1.13636084e-01 5.88474140e-01 -1.03956549e+00 -4.85899457e-01 -1.02113016e+00 -5.63882051e-01 -2.27285538e-01 1.49787855e-01 -6.32607130e-01 -6.56168721e-01 3.23125988e-02 1.00965018e+00 7.56896838e-02 8.17050372e-02 2.10875214e-01 1.34575150e-01 -3.12745415e-01 -6.01961634e-01 -1.00692636e-01 -1.16606789e+00 -8.81209686e-02 5.92068543e-02 1.80274816e+00 3.91168182e-01 3.43624881e-01 4.60160655e-02 1.06788567e+00 1.56775599e-02 -1.29109499e-01 -8.60692795e-01 -4.10625778e-02 -1.64151581e-01 1.64356241e-01 3.14498393e-01 -8.17271487e-01 3.10238589e-01 1.00262747e-01 -4.40163642e-01 -3.26938420e-01 3.01178021e-01 5.51548468e-01 1.60413608e+00 -1.50316473e-01 2.78961117e-01 1.41678080e-02 9.23714653e-01 -1.37111286e-01 -2.27221929e+00 4.62553838e-01 1.70727949e-01 1.62686566e-01 7.77547940e-02 -1.42149364e+00 3.46759570e-01 -1.96499146e-01 2.49864454e-01 1.04333832e-01 1.15206000e-02 4.39047269e-01 2.33842880e-01 -4.09477523e-01 -1.54207067e-01 1.60426052e-01 4.04722524e-02 1.32177031e+00 -1.76100012e-02 4.43638745e-02 -3.63847637e-01 7.78237510e-01 1.66686997e+00 1.49725634e-01 -4.13400512e-01 -1.43882544e-01 -4.13595402e-01 2.39293105e-01 -1.15499311e+00 4.28359192e-01 3.49195433e-01 -4.05413637e-01 -9.50300890e-01 1.57836437e-01 4.27235105e-02 3.02634294e-02 1.30880989e-01 1.39593944e-01 -5.86828634e-02 -1.13888052e-01 2.22130990e-01 5.80326314e-01 1.93039984e-01 3.47630660e-01 1.08011076e+00 -2.08492315e-01 -3.76181734e-01 1.19494086e+00 -4.86032640e-01 6.40778610e-01 -6.49901914e-01 -3.56766304e-03 2.37750443e-01 -6.30397009e-01 -1.46568319e-02 6.26938361e-01 -1.82874870e-01 -1.00569685e+00 -1.45646321e-01 6.47000166e-01 1.62201142e-01 -1.33624922e+00 5.98133776e-01 -4.92526733e-01 -1.71262738e-01 3.14842921e-01 1.12108335e-01 1.20929276e-01 -1.51039468e-01 -1.50448628e-01 8.69289536e-01
