1.24320000e+01 0.00000000e+00 0.00000000e+00 0.00000000e+00 1.24320000e+01 0.00000000e+00 0.00000000e+00 0.00000000e+00 1.24320000e+01
1.25570000e+01 0.00000000e+00 0.00000000e+00 0.00000000e+00 1.25570000e+01 0.00000000e+00 0.00000000e+00 0.00000000e+00 1.25570000e+01
1.25550000e+01 0.00000000e+00 0.00000000e+00 0.00000000e+00 1.25550000e+01 0.00000000e+00 0.00000000e+00 0.00000000e+00 1.25550000e+01
1.24930000e+01 0.00000000e+00 0.00000000e+00 0.00000000e+00 1.24930000e+01 0.00000000e+00 0.00000000e+00 0.00000000e+00 1.24930000e+01
1.24410000e+01 0.00000000e+00 0.00000000e+00 0.00000000e+00 1.24410000e+01 0.00000000e+00 0.00000000e+00 0.00000000e+00 1.24410000e+01
1.23510000e+01 0.00000000e+00 0.00000000e+00 0.00000000e+00 1.23510000e+01 0.00000000e+00 0.00000000e+00 0.00000000e+00 1.23510000e+01
1.27380000e+01 0.00000000e+00 0.00000000e+00 0.00000000e+00 1.27380000e+01 0.00000000e+00 0.00000000e+00 0.00000000e+00 1.27380000e+01
1.24870000e+01 0.00000000e+00 0.00000000e+00 0.00000000e+00 1.24870000e+01 0.00000000e+00 0.00000000e+00 0.00000000e+00 1.24870000e+01
1.26460000e+01 0.00000000e+00 0.00000000e+00 0.00000000e+00 1.26460000e+01 0.00000000e+00 0.00000000e+00 0.00000000e+00 1.26460000e+01
1.25610000e+01 0.00000000e+00 0.00000000e+00 0.00000000e+00 1.25610000e+01 0.00000000e+00 0.00000000e+00 0.00000000e+00 1.25610000e+01
1.25140000e+01 0.00000000e+00 0.00000000e+00 0.00000000e+00 1.25140000e+01 0.00000000e+00 0.00000000e+00 0.00000000e+00 1.25140000e+01
1.25220000e+01 0.00000000e+00 0.00000000e+00 0.00000000e+00 1.25220000e+01 0.00000000e+00 0.00000000e+00 0.00000000e+00 1.25220000e+01
1.25430000e+01 0.00000000e+00 0.00000000e+00 0.00000000e+00 1.25430000e+01 0.00000000e+00 0.00000000e+00 0.00000000e+00 1.25430000e+01
1.25040000e+01 0.00000000e+00 0.00000000e+00 0.00000000e+00 1.25040000e+01 0.00000000e+00 0.00000000e+00 0.00000000e+00 1.25040000e+01
1.26300000e+01 0.00000000e+00 0.00000000e+00 0.00000000e+00 1.26300000e+01 0.00000000e+00 0.00000000e+00 0.00000000e+00 1.26300000e+01
1.25310000e+01 0.00000000e+00 0.00000000e+00 0.00000000e+00 1.25310000e+01 0.00000000e+00 0.00000000e+00 0.00000000e+00 1.25310000e+01
1.24500000e+01 0.00000000e+00 0.00000000e+00 0.00000000e+00 1.24500000e+01 0.00000000e+00 0.00000000e+00 0.00000000e+00 1.24500000e+01
1.26820000e+01 0.00000000e+00 0.00000000e+00 0.00000000e+00 1.26820000e+01 0.00000000e+00 0.00000000e+00 0.00000000e+00 1.26820000e+01
1.24150000e+01 0.00000000e+00 0.00000000e+00 0.00000000e+00 1.24150000e+01 0.00000000e+00 0.00000000e+00 0.00000000e+00 1.24150000e+01
1.25740000e+01 0.00000000e+00 0.00000000e+00 0.00000000e+00 1.25740000e+01 0.00000000e+00 0.00000000e+00 0.00000000e+00 1.25740000e+01
1.25010000e+01 0.00000000e+00 0.00000000e+00 0.00000000e+00 1.25010000e+01 0.00000000e+00 0.00000000e+00 0.00000000e+00 1.25010000e+01
1.24260000e+01 0.00000000e+00 0.00000000e+00 0.00000000e+00 1.24260000e+01 0.00000000e+00 0.00000000e+00 0.00000000e+00 1.24260000e+01
1.26090000e+01 0.00000000e+00 0.00000000e+00 0.00000000e+00 1.26090000e+01 0.00000000e+00 0.00000000e+00 0.00000000e+00 1.26090000e+01
1.24230000e+01 0.00000000e+00 0.00000000e+00 0.00000000e+00 1.24230000e+01 0.00000000e+00 0.00000000e+00 0.00000000e+00 1.24230000e+01
1.25260000e+01 0.00000000e+00 0.00000000e+00 0.00000000e+00 1.25260000e+01 0.00000000e+00 0.00000000e+00 0.00000000e+00 1.25260000e+01
1.23440000e+01 0.00000000e+00 0.00000000e+00 0.00000000e+00 1.23440000e+01 0.00000000e+00 0.00000000e+00 0.00000000e+00 1.23440000e+01
1.25730000e+01 0.00000000e+00 0.00000000e+00 0.00000000e+00 1.25730000e+01 0.00000000e+00 0.00000000e+00 0.00000000e+00 1.25730000e+01
1.25840000e+01 0.00000000e+00 0.00000000e+00 0.00000000e+00 1.25840000e+01 0.00000000e+00 0.00000000e+00 0.00000000e+00 1.25840000e+01
1.23460000e+01 0.00000000e+00 0.00000000e+00 0.00000000e+00 1.23460000e+01 0.00000000e+00 0.00000000e+00 0.00000000e+00 1.23460000e+01
1.24020000e+01 0.00000000e+00 0.00000000e+00 0.00000000e+00 1.24020000e+01 0.00000000e+00 0.00000000e+00 0.00000000e+00 1.24020000e+01
1.24430000e+01 0.00000000e+00 0.00000000e+00 0.00000000e+00 1.24430000e+01 0.00000000e+00 0.00000000e+00 0.00000000e+00 1.24430000e+01
1.23850000e+01 0.00000000e+00 0.00000000e+00 0.00000000e+00 1.23850000e+01 0.00000000e+00 0.00000000e+00 0.00000000e+00 1.23850000e+01
1.23490000e+01 0.00000000e+00 0.00000000e+00 0.00000000e+00 1.23490000e+01 0.00000000e+00 0.00000000e+00 0.00000000e+00 1.23490000e+01
1.23280000e+01 0.00000000e+00 0.00000000e+00 0.00000000e+00 1.23280000e+01 0.00000000e+00 0.00000000e+00 0.00000000e+00 1.23280000e+01
1.23560000e+01 0.00000000e+00 0.00000000e+00 0.00000000e+00 1.23560000e+01 0.00000000e+00 0.00000000e+00 0.00000000e+00 1.23560000e+01
1.22990000e+01 0.00000000e+00 0.00000000e+00 0.00000000e+00 1.22990000e+01 0.00000000e+00 0.00000000e+00 0.00000000e+00 1.22990000e+01
1.24670000e+01 0.00000000e+00 0.00000000e+00 0.00000000e+00 1.24670000e+01 0.00000000e+00 0.00000000e+00 0.00000000e+00 1.24670000e+01
1.23890000e+01 0.00000000e+00 0.00000000e+00 0.00000000e+00 1.23890000e+01 0.00000000e+00 0.00000000e+00 0.00000000e+00 1.23890000e+01
1.25280000e+01 0.00000000e+00 0.00000000e+00 0.00000000e+00 1.25280000e+01 0.00000000e+00 0.00000000e+00 0.00000000e+00 1.25280000e+01
1.23860000e+01 0.00000000e+00 0.00000000e+00 0.00000000e+00 1.23860000e+01 0.00000000e+00 0.00000000e+00 0.00000000e+00 1.23860000e+01
1.24590000e+01 0.00000000e+00 0.00000000e+00 0.00000000e+00 1.24590000e+01 0.00000000e+00 0.00000000e+00 0.00000000e+00 1.24590000e+01
1.25000000e+01 0.00000000e+00 0.00000000e+00 0.00000000e+00 1.25000000e+01 0.00000000e+00 0.00000000e+00 0.00000000e+00 1.25000000e+01
1.23390000e+01 0.00000000e+00 0.00000000e+00 0.00000000e+00 1.23390000e+01 0.00000000e+00 0.00000000e+00 0.00000000e+00 1.23390000e+01
1.24250000e+01 0.00000000e+00 0.00000000e+00 0.00000000e+00 1.24250000e+01 0.00000000e+00 0.00000000e+00 0.00000000e+00 1.24250000e+01
1.24760000e+01 0.00000000e+00 0.00000000e+00 0.00000000e+00 1.24760000e+01 0.00000000e+00 0.00000000e+00 0.00000000e+00 1.24760000e+01
1.25020000e+01 0.00000000e+00 0.00000000e+00 0.00000000e+00 1.25020000e+01 0.00000000e+00 0.00000000e+00 0.00000000e+00 1.25020000e+01
1.25010000e+01 0.00000000e+00 0.00000000e+00 0.00000000e+00 1.25010000e+01 0.00000000e+00 0.00000000e+00 0.00000000e+00 1.25010000e+01
1.26410000e+01 0.00000000e+00 0.00000000e+00 0.00000000e+00 1.26410000e+01 0.00000000e+00 0.00000000e+00 0.00000000e+00 1.26410000e+01
1.23940000e+01 0.00000000e+00 0.00000000e+00 0.00000000e+00 1.23940000e+01 0.00000000e+00 0.00000000e+00 0.00000000e+00 1.23940000e+01
1.24780000e+01 0.00000000e+00 0.00000000e+00 0.00000000e+00 1.24780000e+01 0.00000000e+00 0.00000000e+00 0.00000000e+00 1.24780000e+01
1.24720000e+01 0.00000000e+00 0.00000000e+00 0.00000000e+00 1.24720000e+01 0.00000000e+00 0.00000000e+00 0.00000000e+00 1.24720000e+01
1.24090000e+01 0.00000000e+00 0.00000000e+00 0.00000000e+00 1.24090000e+01 0.00000000e+00 0.00000000e+00 0.00000000e+00 1.24090000e+01
1.24890000e+01 0.00000000e+00 0.00000000e+00 0.00000000e+00 1.24890000e+01 0.00000000e+00 0.00000000e+00 0.00000000e+00 1.24890000e+01
1.23710000e+01 0.00000000e+00 0.00000000e+00 0.00000000e+00 1.23710000e+01 0.00000000e+00 0.00000000e+00 0.00000000e+00 1.23710000e+01
1.25330000e+01 0.00000000e+00 0.00000000e+00 0.00000000e+00 1.25330000e+01 0.00000000e+00 0.00000000e+00 0.00000000e+00 1.25330000e+01
1.23280000e+01 0.00000000e+00 0.00000000e+00 0.00000000e+00 1.23280000e+01 0.00000000e+00 0.00000000e+00 0.00000000e+00 1.23280000e+01
1.24270000e+01 0.00000000e+00 0.00000000e+00 0.00000000e+00 1.24270000e+01 0.00000000e+00 0.00000000e+00 0.00000000e+00 1.24270000e+01
1.22800000e+01 0.00000000e+00 0.00000000e+00 0.00000000e+00 1.22800000e+01 0.00000000e+00 0.00000000e+00 0.00000000e+00 1.22800000e+01
1.24560000e+01 0.00000000e+00 0.00000000e+00 0.00000000e+00 1.24560000e+01 0.00000000e+00 0.00000000e+00 0.00000000e+00 1.24560000e+01
1.23220000e+01 0.00000000e+00 0.00000000e+00 0.00000000e+00 1.23220000e+01 0.00000000e+00 0.00000000e+00 0.00000000e+00 1.23220000e+01
1.25020000e+01 0.00000000e+00 0.00000000e+00 0.00000000e+00 1.25020000e+01 0.00000000e+00 0.00000000e+00 0.00000000e+00 1.25020000e+01
1.25500000e+01 0.00000000e+00 0.00000000e+00 0.00000000e+00 1.25500000e+01 0.00000000e+00 0.00000000e+00 0.00000000e+00 1.25500000e+01
1.25890000e+01 0.00000000e+00 0.00000000e+00 0.00000000e+00 1.25890000e+01 0.00000000e+00 0.00000000e+00 0.00000000e+00 1.25890000e+01
1.24380000e+01 0.00000000e+00 0.00000000e+00 0.00000000e+00 1.24380000e+01 0.00000000e+00 0.00000000e+00 0.00000000e+00 1.24380000e+01
1.23000000e+01 0.00000000e+00 0.00000000e+00 0.00000000e+00 1.23000000e+01 0.00000000e+00 0.00000000e+00 0.00000000e+00 1.23000000e+01
1.22480000e+01 0.00000000e+00 0.00000000e+00 0.00000000e+00 1.22480000e+01 0.00000000e+00 0.00000000e+00 0.00000000e+00 1.22480000e+01
1.24540000e+01 0.00000000e+00 0.00000000e+00 0.00000000e+00 1.24540000e+01 0.00000000e+00 0.00000000e+00 0.00000000e+00 1.24540000e+01
1.22040000e+01 0.00000000e+00 0.00000000e+00 0.00000000e+00 1.22040000e+01 0.00000000e+00 0.00000000e+00 0.00000000e+00 1.22040000e+01
1.22960000e+01 0.00000000e+00 0.00000000e+00 0.00000000e+00 1.22960000e+01 0.00000000e+00 0.00000000e+00 0.00000000e+00 1.22960000e+01
1.24930000e+01 0.00000000e+00 0.00000000e+00 0.00000000e+00 1.24930000e+01 0.00000000e+00 0.00000000e+00 0.00000000e+00 1.24930000e+01
1.24550000e+01 0.00000000e+00 0.00000000e+00 0.00000000e+00 1.24550000e+01 0.00000000e+00 0.00000000e+00 0.00000000e+00 1.24550000e+01
1.23750000e+01 0.00000000e+00 0.00000000e+00 0.00000000e+00 1.23750000e+01 0.00000000e+00 0.00000000e+00 0.00000000e+00 1.23750000e+01
1.24680000e+01 0.00000000e+00 0.00000000e+00 0.00000000e+00 1.24680000e+01 0.00000000e+00 0.00000000e+00 0.00000000e+00 1.24680000e+01
1.25180000e+01 0.00000000e+00 0.00000000e+00 0.00000000e+00 1.25180000e+01 0.00000000e+00 0.00000000e+00 0.00000000e+00 1.25180000e+01
1.24480000e+01 0.00000000e+00 0.00000000e+00 0.00000000e+00 1.24480000e+01 0.00000000e+00 0.00000000e+00 0.00000000e+00 1.24480000e+01
1.24350000e+01 0.00000000e+00 0.00000000e+00 0.00000000e+00 1.24350000e+01 0.00000000e+00 0.00000000e+00 0.00000000e+00 1.24350000e+01
1.25840000e+01 0.00000000e+00 0.00000000e+00 0.00000000e+00 1.25840000e+01 0.00000000e+00 0.00000000e+00 0.00000000e+00 1.25840000e+01
1.23560000e+01 0.00000000e+00 0.00000000e+00 0.00000000e+00 1.23560000e+01 0.00000000e+00 0.00000000e+00 0.00000000e+00 1.23560000e+01
1.23520000e+01 0.00000000e+00 0.00000000e+00 0.00000000e+00 1.23520000e+01 0.00000000e+00 0.00000000e+00 0.00000000e+00 1.23520000e+01
1.24630000e+01 0.00000000e+00 0.00000000e+00 0.00000000e+00 1.24630000e+01 0.00000000e+00 0.00000000e+00 0.00000000e+00 1.24630000e+01
1.25020000e+01 0.00000000e+00 0.00000000e+00 0.00000000e+00 1.25020000e+01 0.00000000e+00 0.00000000e+00 0.00000000e+00 1.25020000e+01
1.25350000e+01 0.00000000e+00 0.00000000e+00 0.00000000e+00 1.25350000e+01 0.00000000e+00 0.00000000e+00 0.00000000e+00 1.25350000e+01
1.24930000e+01 0.00000000e+00 0.00000000e+00 0.00000000e+00 1.24930000e+01 0.00000000e+00 0.00000000e+00 0.00000000e+00 1.24930000e+01
1.23480000e+01 0.00000000e+00 0.00000000e+00 0.00000000e+00 1.23480000e+01 0.00000000e+00 0.00000000e+00 0.00000000e+00 1.23480000e+01
1.24230000e+01 0.00000000e+00 0.00000000e+00 0.00000000e+00 1.24230000e+01 0.00000000e+00 0.00000000e+00 0.00000000e+00 1.24230000e+01
1.24480000e+01 0.00000000e+00 0.00000000e+00 0.00000000e+00 1.24480000e+01 0.00000000e+00 0.00000000e+00 0.00000000e+00 1.24480000e+01
1.24870000e+01 0.00000000e+00 0.00000000e+00 0.00000000e+00 1.24870000e+01 0.00000000e+00 0.00000000e+00 0.00000000e+00 1.24870000e+01
1.23730000e+01 0.00000000e+00 0.00000000e+00 0.00000000e+00 1.23730000e+01 0.00000000e+00 0.00000000e+00 0.00000000e+00 1.23730000e+01
1.24600000e+01 0.00000000e+00 0.00000000e+00 0.00000000e+00 1.24600000e+01 0.00000000e+00 0.00000000e+00 0.00000000e+00 1.24600000e+01
1.22520000e+01 0.00000000e+00 0.00000000e+00 0.00000000e+00 1.22520000e+01 0.00000000e+00 0.00000000e+00 0.00000000e+00 1.22520000e+01
1.24330000e+01 0.00000000e+00 0.00000000e+00 0.00000000e+00 1.24330000e+01 0.00000000e+00 0.00000000e+00 0.00000000e+00 1.24330000e+01
1.24030000e+01 0.00000000e+00 0.00000000e+00 0.00000000e+00 1.24030000e+01 0.00000000e+00 0.00000000e+00 0.00000000e+00 1.24030000e+01
1.24160000e+01 0.00000000e+00 0.00000000e+00 0.00000000e+00 1.24160000e+01 0.00000000e+00 0.00000000e+00 0.00000000e+00 1.24160000e+01
1.24600000e+01 0.00000000e+00 0.00000000e+00 0.00000000e+00 1.24600000e+01 0.00000000e+00 0.00000000e+00 0.00000000e+00 1.24600000e+01
1.23710000e+01 0.00000000e+00 0.00000000e+00 0.00000000e+00 1.23710000e+01 0.00000000e+00 0.00000000e+00 0.00000000e+00 1.23710000e+01
1.24190000e+01 0.00000000e+00 0.00000000e+00 0.00000000e+00 1.24190000e+01 0.00000000e+00 0.00000000e+00 0.00000000e+00 1.24190000e+01
1.25560000e+01 0.00000000e+00 0.00000000e+00 0.00000000e+00 1.25560000e+01 0.00000000e+00 0.00000000e+00 0.00000000e+00 1.25560000e+01
1.24330000e+01 0.00000000e+00 0.00000000e+00 0.00000000e+00 1.24330000e+01 0.00000000e+00 0.00000000e+00 0.00000000e+00 1.24330000e+01
1.25370000e+01 0.00000000e+00 0.00000000e+00 0.00000000e+00 1.25370000e+01 0.00000000e+00 0.00000000e+00 0.00000000e+00 1.25370000e+01
1.25120000e+01 0.00000000e+00 0.00000000e+00 0.00000000e+00 1.25120000e+01 0.00000000e+00 0.00000000e+00 0.00000000e+00 1.25120000e+01
1.24870000e+01 0.00000000e+00 0.00000000e+00 0.00000000e+00 1.24870000e+01 0.00000000e+00 0.00000000e+00 0.00000000e+00 1.24870000e+01
1.24780000e+01 0.00000000e+00 0.00000000e+00 0.00000000e+00 1.24780000e+01 0.00000000e+00 0.00000000e+00 0.00000000e+00 1.24780000e+01
1.24690000e+01 0.00000000e+00 0.00000000e+00 0.00000000e+00 1.24690000e+01 0.00000000e+00 0.00000000e+00 0.00000000e+00 1.24690000e+01
1.26600000e+01 0.00000000e+00 0.00000000e+00 0.00000000e+00 1.26600000e+01 0.00000000e+00 0.00000000e+00 0.00000000e+00 1.26600000e+01
1.26650000e+01 0.00000000e+00 0.00000000e+00 0.00000000e+00 1.26650000e+01 0.00000000e+00 0.00000000e+00 0.00000000e+00 1.26650000e+01
1.26710000e+01 0.00000000e+00 0.00000000e+00 0.00000000e+00 1.26710000e+01 0.00000000e+00 0.00000000e+00 0.00000000e+00 1.26710000e+01
1.27340000e+01 0.00000000e+00 0.00000000e+00 0.00000000e+00 1.27340000e+01 0.00000000e+00 0.00000000e+00 0.00000000e+00 1.27340000e+01
1.27350000e+01 0.00000000e+00 0.00000000e+00 0.00000000e+00 1.27350000e+01 0.00000000e+00 0.00000000e+00 0.00000000e+00 1.27350000e+01
1.34000000e+01 0.00000000e+00 0.00000000e+00 0.00000000e+00 1.34000000e+01 0.00000000e+00 0.00000000e+00 0.00000000e+00 1.34000000e+01
1.33900000e+01 0.00000000e+00 0.00000000e+00 0.00000000e+00 1.33900000e+01 0.00000000e+00 0.00000000e+00 0.00000000e+00 1.33900000e+01
1.31300000e+01 0.00000000e+00 0.00000000e+00 0.00000000e+00 1.31300000e+01 0.00000000e+00 0.00000000e+00 0.00000000e+00 1.31300000e+01
1.31180000e+01 0.00000000e+00 0.00000000e+00 0.00000000e+00 1.31180000e+01 0.00000000e+00 0.00000000e+00 0.00000000e+00 1.31180000e+01
1.29040000e+01 0.00000000e+00 0.00000000e+00 0.00000000e+00 1.29040000e+01 0.00000000e+00 0.00000000e+00 0.00000000e+00 1.29040000e+01
1.30830000e+01 0.00000000e+00 0.00000000e+00 0.00000000e+00 1.30830000e+01 0.00000000e+00 0.00000000e+00 0.00000000e+00 1.30830000e+01
1.29230000e+01 0.00000000e+00 0.00000000e+00 0.00000000e+00 1.29230000e+01 0.00000000e+00 0.00000000e+00 0.00000000e+00 1.29230000e+01
1.29220000e+01 0.00000000e+00 0.00000000e+00 0.00000000e+00 1.29220000e+01 0.00000000e+00 0.00000000e+00 0.00000000e+00 1.29220000e+01
1.30300000e+01 0.00000000e+00 0.00000000e+00 0.00000000e+00 1.30300000e+01 0.00000000e+00 0.00000000e+00 0.00000000e+00 1.30300000e+01
1.30340000e+01 0.00000000e+00 0.00000000e+00 0.00000000e+00 1.30340000e+01 0.00000000e+00 0.00000000e+00 0.00000000e+00 1.30340000e+01
1.29100000e+01 0.00000000e+00 0.00000000e+00 0.00000000e+00 1.29100000e+01 0.00000000e+00 0.00000000e+00 0.00000000e+00 1.29100000e+01
1.30140000e+01 0.00000000e+00 0.00000000e+00 0.00000000e+00 1.30140000e+01 0.00000000e+00 0.00000000e+00 0.00000000e+00 1.30140000e+01
1.30760000e+01 0.00000000e+00 0.00000000e+00 0.00000000e+00 1.30760000e+01 0.00000000e+00 0.00000000e+00 0.00000000e+00 1.30760000e+01
1.27590000e+01 0.00000000e+00 0.00000000e+00 0.00000000e+00 1.27590000e+01 0.00000000e+00 0.00000000e+00 0.00000000e+00 1.27590000e+01
1.29390000e+01 0.00000000e+00 0.00000000e+00 0.00000000e+00 1.29390000e+01 0.00000000e+00 0.00000000e+00 0.00000000e+00 1.29390000e+01
1.30830000e+01 0.00000000e+00 0.00000000e+00 0.00000000e+00 1.30830000e+01 0.00000000e+00 0.00000000e+00 0.00000000e+00 1.30830000e+01
1.28290000e+01 0.00000000e+00 0.00000000e+00 0.00000000e+00 1.28290000e+01 0.00000000e+00 0.00000000e+00 0.00000000e+00 1.28290000e+01
1.28280000e+01 0.00000000e+00 0.00000000e+00 0.00000000e+00 1.28280000e+01 0.00000000e+00 0.00000000e+00 0.00000000e+00 1.28280000e+01
1.28260000e+01 0.00000000e+00 0.00000000e+00 0.00000000e+00 1.28260000e+01 0.00000000e+00 0.00000000e+00 0.00000000e+00 1.28260000e+01
1.29930000e+01 0.00000000e+00 0.00000000e+00 0.00000000e+00 1.29930000e+01 0.00000000e+00 0.00000000e+00 0.00000000e+00 1.29930000e+01
1.30700000e+01 0.00000000e+00 0.00000000e+00 0.00000000e+00 1.30700000e+01 0.00000000e+00 0.00000000e+00 0.00000000e+00 1.30700000e+01
1.31110000e+01 0.00000000e+00 0.00000000e+00 0.00000000e+00 1.31110000e+01 0.00000000e+00 0.00000000e+00 0.00000000e+00 1.31110000e+01
1.29400000e+01 0.00000000e+00 0.00000000e+00 0.00000000e+00 1.29400000e+01 0.00000000e+00 0.00000000e+00 0.00000000e+00 1.29400000e+01
1.29250000e+01 0.00000000e+00 0.00000000e+00 0.00000000e+00 1.29250000e+01 0.00000000e+00 0.00000000e+00 0.00000000e+00 1.29250000e+01
1.29920000e+01 0.00000000e+00 0.00000000e+00 0.00000000e+00 1.29920000e+01 0.00000000e+00 0.00000000e+00 0.00000000e+00 1.29920000e+01
1.29560000e+01 0.00000000e+00 0.00000000e+00 0.00000000e+00 1.29560000e+01 0.00000000e+00 0.00000000e+00 0.00000000e+00 1.29560000e+01
1.28180000e+01 0.00000000e+00 0.00000000e+00 0.00000000e+00 1.28180000e+01 0.00000000e+00 0.00000000e+00 0.00000000e+00 1.28180000e+01
1.31570000e+01 0.00000000e+00 0.00000000e+00 0.00000000e+00 1.31570000e+01 0.00000000e+00 0.00000000e+00 0.00000000e+00 1.31570000e+01
1.26660000e+01 0.00000000e+00 0.00000000e+00 0.00000000e+00 1.26660000e+01 0.00000000e+00 0.00000000e+00 0.00000000e+00 1.26660000e+01
1.28880000e+01 0.00000000e+00 0.00000000e+00 0.00000000e+00 1.28880000e+01 0.00000000e+00 0.00000000e+00 0.00000000e+00 1.28880000e+01
1.27570000e+01 0.00000000e+00 0.00000000e+00 0.00000000e+00 1.27570000e+01 0.00000000e+00 0.00000000e+00 0.00000000e+00 1.27570000e+01
1.25100000e+01 0.00000000e+00 0.00000000e+00 0.00000000e+00 1.25100000e+01 0.00000000e+00 0.00000000e+00 0.00000000e+00 1.25100000e+01
1.29570000e+01 0.00000000e+00 0.00000000e+00 0.00000000e+00 1.29570000e+01 0.00000000e+00 0.00000000e+00 0.00000000e+00 1.29570000e+01
1.29310000e+01 0.00000000e+00 0.00000000e+00 0.00000000e+00 1.29310000e+01 0.00000000e+00 0.00000000e+00 0.00000000e+00 1.29310000e+01
1.29640000e+01 0.00000000e+00 0.00000000e+00 0.00000000e+00 1.29640000e+01 0.00000000e+00 0.00000000e+00 0.00000000e+00 1.29640000e+01
1.29760000e+01 0.00000000e+00 0.00000000e+00 0.00000000e+00 1.29760000e+01 0.00000000e+00 0.00000000e+00 0.00000000e+00 1.29760000e+01
1.29850000e+01 0.00000000e+00 0.00000000e+00 0.00000000e+00 1.29850000e+01 0.00000000e+00 0.00000000e+00 0.00000000e+00 1.29850000e+01
1.29680000e+01 0.00000000e+00 0.00000000e+00 0.00000000e+00 1.29680000e+01 0.00000000e+00 0.00000000e+00 0.00000000e+00 1.29680000e+01
1.30770000e+01 0.00000000e+00 0.00000000e+00 0.00000000e+00 1.30770000e+01 0.00000000e+00 0.00000000e+00 0.00000000e+00 1.30770000e+01
1.28940000e+01 0.00000000e+00 0.00000000e+00 0.00000000e+00 1.28940000e+01 0.00000000e+00 0.00000000e+00 0.00000000e+00 1.28940000e+01
1.30620000e+01 0.00000000e+00 0.00000000e+00 0.00000000e+00 1.30620000e+01 0.00000000e+00 0.00000000e+00 0.00000000e+00 1.30620000e+01
1.26290000e+01 0.00000000e+00 0.00000000e+00 0.00000000e+00 1.26290000e+01 0.00000000e+00 0.00000000e+00 0.00000000e+00 1.26290000e+01
1.29840000e+01 0.00000000e+00 0.00000000e+00 0.00000000e+00 1.29840000e+01 0.00000000e+00 0.00000000e+00 0.00000000e+00 1.29840000e+01
1.33540000e+01 0.00000000e+00 0.00000000e+00 0.00000000e+00 1.33540000e+01 0.00000000e+00 0.00000000e+00 0.00000000e+00 1.33540000e+01
1.31490000e+01 0.00000000e+00 0.00000000e+00 0.00000000e+00 1.31490000e+01 0.00000000e+00 0.00000000e+00 0.00000000e+00 1.31490000e+01
1.31130000e+01 0.00000000e+00 0.00000000e+00 0.00000000e+00 1.31130000e+01 0.00000000e+00 0.00000000e+00 0.00000000e+00 1.31130000e+01
1.30350000e+01 0.00000000e+00 0.00000000e+00 0.00000000e+00 1.30350000e+01 0.00000000e+00 0.00000000e+00 0.00000000e+00 1.30350000e+01
1.31650000e+01 0.00000000e+00 0.00000000e+00 0.00000000e+00 1.31650000e+01 0.00000000e+00 0.00000000e+00 0.00000000e+00 1.31650000e+01
1.27360000e+01 0.00000000e+00 0.00000000e+00 0.00000000e+00 1.27360000e+01 0.00000000e+00 0.00000000e+00 0.00000000e+00 1.27360000e+01
1.30740000e+01 0.00000000e+00 0.00000000e+00 0.00000000e+00 1.30740000e+01 0.00000000e+00 0.00000000e+00 0.00000000e+00 1.30740000e+01
1.28230000e+01 0.00000000e+00 0.00000000e+00 0.00000000e+00 1.28230000e+01 0.00000000e+00 0.00000000e+00 0.00000000e+00 1.28230000e+01
1.31860000e+01 0.00000000e+00 0.00000000e+00 0.00000000e+00 1.31860000e+01 0.00000000e+00 0.00000000e+00 0.00000000e+00 1.31860000e+01
1.28570000e+01 0.00000000e+00 0.00000000e+00 0.00000000e+00 1.28570000e+01 0.00000000e+00 0.00000000e+00 0.00000000e+00 1.28570000e+01
1.28550000e+01 0.00000000e+00 0.00000000e+00 0.00000000e+00 1.28550000e+01 0.00000000e+00 0.00000000e+00 0.00000000e+00 1.28550000e+01
1.28460000e+01 0.00000000e+00 0.00000000e+00 0.00000000e+00 1.28460000e+01 0.00000000e+00 0.00000000e+00 0.00000000e+00 1.28460000e+01
1.30290000e+01 0.00000000e+00 0.00000000e+00 0.00000000e+00 1.30290000e+01 0.00000000e+00 0.00000000e+00 0.00000000e+00 1.30290000e+01
1.31890000e+01 0.00000000e+00 0.00000000e+00 0.00000000e+00 1.31890000e+01 0.00000000e+00 0.00000000e+00 0.00000000e+00 1.31890000e+01
1.27100000e+01 0.00000000e+00 0.00000000e+00 0.00000000e+00 1.27100000e+01 0.00000000e+00 0.00000000e+00 0.00000000e+00 1.27100000e+01
1.30670000e+01 0.00000000e+00 0.00000000e+00 0.00000000e+00 1.30670000e+01 0.00000000e+00 0.00000000e+00 0.00000000e+00 1.30670000e+01
1.28780000e+01 0.00000000e+00 0.00000000e+00 0.00000000e+00 1.28780000e+01 0.00000000e+00 0.00000000e+00 0.00000000e+00 1.28780000e+01
1.29510000e+01 0.00000000e+00 0.00000000e+00 0.00000000e+00 1.29510000e+01 0.00000000e+00 0.00000000e+00 0.00000000e+00 1.29510000e+01
1.30310000e+01 0.00000000e+00 0.00000000e+00 0.00000000e+00 1.30310000e+01 0.00000000e+00 0.00000000e+00 0.00000000e+00 1.30310000e+01
1.25500000e+01 0.00000000e+00 0.00000000e+00 0.00000000e+00 1.25500000e+01 0.00000000e+00 0.00000000e+00 0.00000000e+00 1.25500000e+01
1.25410000e+01 0.00000000e+00 0.00000000e+00 0.00000000e+00 1.25410000e+01 0.00000000e+00 0.00000000e+00 0.00000000e+00 1.25410000e+01
1.25370000e+01 0.00000000e+00 0.00000000e+00 0.00000000e+00 1.25370000e+01 0.00000000e+00 0.00000000e+00 0.00000000e+00 1.25370000e+01
1.27360000e+01 0.00000000e+00 0.00000000e+00 0.00000000e+00 1.27360000e+01 0.00000000e+00 0.00000000e+00 0.00000000e+00 1.27360000e+01
1.26950000e+01 0.00000000e+00 0.00000000e+00 0.00000000e+00 1.26950000e+01 0.00000000e+00 0.00000000e+00 0.00000000e+00 1.26950000e+01
1.29750000e+01 0.00000000e+00 0.00000000e+00 0.00000000e+00 1.29750000e+01 0.00000000e+00 0.00000000e+00 0.00000000e+00 1.29750000e+01
1.28430000e+01 0.00000000e+00 0.00000000e+00 0.00000000e+00 1.28430000e+01 0.00000000e+00 0.00000000e+00 0.00000000e+00 1.28430000e+01
1.27930000e+01 0.00000000e+00 0.00000000e+00 0.00000000e+00 1.27930000e+01 0.00000000e+00 0.00000000e+00 0.00000000e+00 1.27930000e+01
1.28450000e+01 0.00000000e+00 0.00000000e+00 0.00000000e+00 1.28450000e+01 0.00000000e+00 0.00000000e+00 0.00000000e+00 1.28450000e+01
