7.71800000e+00 1.09790000e+01 7.70000000e-01 1.20000000e-02 7.26100000e+00 9.04000000e+00 7.80400000e+00 9.53000000e-01 9.42400000e+00 7.33600000e+00 1.10800000e+00 1.64900000e+00 1.04670000e+01 5.61400000e+00 6.98500000e+00 6.93900000e+00 1.06370000e+01 1.24500000e+00 1.54700000e+00 1.05970000e+01 5.98000000e+00 7.38000000e-01 1.23250000e+01 3.95800000e+00 1.23200000e+01 1.66500000e+00 7.53000000e-01 5.93800000e+00 5.52800000e+00 1.00020000e+01 1.20860000e+01 4.87000000e-01 2.95000000e+00 5.47300000e+00 9.24700000e+00 2.02500000e+00 2.56800000e+00 1.07840000e+01 1.00720000e+01 5.74600000e+00 1.01160000e+01 3.22800000e+00 6.51100000e+00 1.40000000e+00 1.14200000e+00 4.56400000e+00 7.47000000e+00 1.57500000e+00 9.06100000e+00 9.79000000e-01 1.17170000e+01 5.16000000e+00 9.74900000e+00 8.57400000e+00 2.86000000e-01 6.26100000e+00 2.52200000e+00 6.62700000e+00 3.63400000e+00 7.11000000e+00 1.25800000e+00 6.56300000e+00 2.47500000e+00 1.22700000e+01 1.22000000e-01 3.87900000e+00 5.30500000e+00 6.91000000e+00 1.89800000e+00 2.73900000e+00 5.46100000e+00 1.21720000e+01 2.95200000e+00 4.62000000e-01 1.20620000e+01 1.23410000e+01 7.34300000e+00 4.01800000e+00 4.75600000e+00 7.70000000e-01 6.17100000e+00 5.06400000e+00 2.02900000e+00 5.37000000e-01 5.65800000e+00 1.28400000e+00 4.84700000e+00 7.34900000e+00 1.63300000e+00 3.36200000e+00 5.54900000e+00 1.01830000e+01 2.29500000e+00 1.15210000e+01 3.47800000e+00 3.64800000e+00 9.69200000e+00 1.12000000e-01 9.41200000e+00 9.92100000e+00 1.37700000e+00 5.72500000e+00 4.48400000e+00 7.16300000e+00 6.11000000e-01 4.07900000e+00 1.04350000e+01 9.49500000e+00 5.60300000e+00 1.07380000e+01 4.95600000e+00 1.08570000e+01 1.41800000e+00 1.05200000e+00 4.59600000e+00 2.60800000e+00 1.15300000e+00 9.62500000e+00 9.25300000e+00 6.43200000e+00 1.06090000e+01 9.08000000e-01 5.25300000e+00 6.70000000e-02 9.79400000e+00 8.29400000e+00 1.11190000e+01 9.98900000e+00 4.11800000e+00 1.05580000e+01 9.98400000e+00 3.34200000e+00 1.06480000e+01 8.61700000e+00 9.37000000e+00 4.77500000e+00 9.00000000e-01 5.14600000e+00 2.56100000e+00 4.77900000e+00 1.22600000e+00 3.61300000e+00 5.51500000e+00 7.63800000e+00 9.09400000e+00 1.50000000e-01 1.01980000e+01 6.44200000e+00 5.66900000e+00 3.23900000e+00 8.40000000e-02 1.48500000e+00 9.08500000e+00 5.41000000e+00 5.04000000e+00 7.45600000e+00 7.51400000e+00 1.98000000e-01 1.23000000e+00 5.79600000e+00 5.32200000e+00 8.30900000e+00 7.46700000e+00 3.23600000e+00 6.80500000e+00 5.03400000e+00 9.67700000e+00 6.16900000e+00 1.05800000e+00 1.06740000e+01 7.38000000e+00 2.69400000e+00 5.83900000e+00 7.60600000e+00 2.87600000e+00 3.16900000e+00 3.41900000e+00 8.57600000e+00 1.17680000e+01 1.02060000e+01 6.36000000e-01 2.28300000e+00 9.28700000e+00 5.81200000e+00 5.67100000e+00 6.82000000e+00 8.48200000e+00 1.08400000e+01 6.45800000e+00 1.19900000e+00 9.23100000e+00 1.23400000e+00 1.85600000e+00 9.64900000e+00 5.72800000e+00 6.71200000e+00 1.99200000e+00 9.48000000e+00 9.43800000e+00 8.38000000e+00 1.10170000e+01 9.05300000e+00 7.46300000e+00 1.09290000e+01 1.79000000e+00 1.08190000e+01 9.42300000e+00 9.29500000e+00 1.67000000e+00 1.23720000e+01 1.06240000e+01 8.51300000e+00 7.82200000e+00 7.92200000e+00 9.58900000e+00 1.05070000e+01 6.99200000e+00 7.32300000e+00 6.70900000e+00 5.85400000e+00 4.52600000e+00 1.03040000e+01 7.34400000e+00 7.51400000e+00 5.87400000e+00 4.74900000e+00 9.05300000e+00 6.85900000e+00 2.08400000e+00 1.10850000e+01 5.30500000e+00 7.95000000e+00 2.63500000e+00 7.43600000e+00 6.68700000e+00 6.05800000e+00 2.36100000e+00 8.69000000e-01 2.42600000e+00 1.08990000e+01 1.34700000e+00 6.36300000e+00 8.86100000e+00 8.97000000e+00 9.02100000e+00 2.18200000e+00 1.20340000e+01 8.63600000e+00 7.73000000e-01 4.00000000e-01 2.94900000e+00 8.60200000e+00 7.23600000e+00 1.49000000e+00 8.82200000e+00 3.94800000e+00 8.56900000e+00 6.51300000e+00 2.34800000e+00 7.05000000e+00 6.41800000e+00 1.11530000e+01 5.45300000e+00 6.32500000e+00 9.70700000e+00 4.08700000e+00 3.60600000e+00 6.47600000e+00 1.11030000e+01 5.35400000e+00 1.12110000e+01 8.39100000e+00 8.61400000e+00 1.02510000e+01 4.44200000e+00 4.98300000e+00 8.44500000e+00 4.67100000e+00 7.36000000e+00 7.42000000e-01 3.93500000e+00 7.20600000e+00 1.01390000e+01 8.33100000e+00 1.17430000e+01 1.00670000e+01 9.66800000e+00 5.68900000e+00 3.37800000e+00 2.46000000e+00 8.69000000e+00 2.44000000e+00 2.17900000e+00 8.91300000e+00 3.48900000e+00 7.26000000e+00 1.11890000e+01 1.12430000e+01 8.08800000e+00 5.80000000e-01 7.75800000e+00 2.14800000e+00 4.73800000e+00 1.78800000e+00 8.67400000e+00 1.20620000e+01 8.69600000e+00 5.95900000e+00 1.04350000e+01 8.95700000e+00 5.58400000e+00 9.55300000e+00 2.62000000e+00 1.19710000e+01 3.25100000e+00 5.09900000e+00 1.03400000e+01 9.34600000e+00 2.11000000e+00 5.06500000e+00 7.39700000e+00 4.20100000e+00 3.85100000e+00 3.25700000e+00 2.18800000e+00 8.48100000e+00 1.12000000e+01 2.29400000e+00 9.94100000e+00 1.05590000e+01 1.19100000e+00 2.85700000e+00 4.15600000e+00 2.16600000e+00 4.82700000e+00 3.26000000e-01 8.22200000e+00 6.24900000e+00 7.54100000e+00 1.15830000e+01 1.08590000e+01 4.01900000e+00 6.74000000e-01 6.65700000e+00 9.45800000e+00 4.20000000e-02 4.53400000e+00 6.85200000e+00 4.76600000e+00 1.19140000e+01 8.24800000e+00 3.89800000e+00 6.41700000e+00 1.15600000e+01 1.07330000e+01 4.59600000e+00 1.19590000e+01 2.78600000e+00 1.22790000e+01 1.13250000e+01 5.56900000e+00 4.49000000e+00 4.39800000e+00 8.60600000e+00 1.76500000e+00 5.95000000e-01 6.30800000e+00 7.96300000e+00 6.93800000e+00 2.52600000e+00 1.23230000e+01 4.19200000e+00 2.33000000e+00 1.26700000e+00 1.21130000e+01 4.34100000e+00 1.49000000e+00 1.12000000e-01 2.07800000e+00 7.90700000e+00 5.98400000e+00 4.56400000e+00 6.16400000e+00 1.08280000e+01 2.46700000e+00 7.58000000e+00 4.19000000e+00 4.96900000e+00 3.74000000e-01 7.90000000e+00 8.24900000e+00 1.24050000e+01 6.38100000e+00 8.54900000e+00 9.61400000e+00 1.56100000e+00 7.81800000e+00 1.15710000e+01 6.52400000e+00 1.09230000e+01 9.34000000e-01 7.47900000e+00 6.10300000e+00 3.59600000e+00 4.31200000e+00 7.44400000e+00 1.04550000e+01 1.05930000e+01 9.76100000e+00 8.68800000e+00 1.70200000e+00 1.22300000e+01 2.84700000e+00 2.33100000e+00 5.46700000e+00 2.96600000e+00 1.03350000e+01 4.53400000e+00 2.87000000e+00 9.97500000e+00 5.87600000e+00 5.76000000e-01 8.18700000e+00 7.05500000e+00 2.20900000e+00 4.08400000e+00 5.17400000e+00 4.53800000e+00 5.29300000e+00 3.21000000e-01 5.29900000e+00 2.60300000e+00 9.43500000e+00 5.17300000e+00 2.18900000e+00 9.86300000e+00 2.30200000e+00 5.35700000e+00 1.83600000e+00 1.00260000e+01 1.23100000e+00 8.15700000e+00 7.79900000e+00 4.37300000e+00 1.46800000e+00 8.81800000e+00 2.11700000e+00 7.60500000e+00 7.19900000e+00 3.87900000e+00 8.81600000e+00 5.53200000e+00 7.78900000e+00 9.54400000e+00 3.38500000e+00 1.20270000e+01 8.61600000e+00 8.35200000e+00 3.69000000e+00 9.76100000e+00 4.32600000e+00 1.21010000e+01 1.15300000e+01 7.16400000e+00 3.64000000e-01 1.16500000e+00 3.44500000e+00 6.44700000e+00 1.15100000e+00 2.38600000e+00 1.18920000e+01 3.36700000e+00 7.62800000e+00 2.77100000e+00 6.81700000e+00 5.82600000e+00 1.03010000e+01 1.21480000e+01 7.74100000e+00 4.88600000e+00 9.12700000e+00 8.54500000e+00 5.95100000e+00 5.38500000e+00 2.65800000e+00 1.12770000e+01 3.10500000e+00 1.12090000e+01 1.84500000e+00 3.98700000e+00 1.08150000e+01 1.92900000e+00 3.17300000e+00 1.17660000e+01 1.02900000e+00 5.85000000e-01 1.06830000e+01 8.31200000e+00 3.39600000e+00 3.00000000e-01 4.42100000e+00 4.12000000e-01 5.32600000e+00 1.23270000e+01 2.52900000e+00 7.86500000e+00 3.27100000e+00 2.10300000e+00 1.70000000e+00 4.71500000e+00 9.91400000e+00 6.06700000e+00 2.11400000e+00 1.23170000e+01 3.56700000e+00 3.01200000e+00 1.65200000e+00 7.79400000e+00 1.06560000e+01 6.63100000e+00 1.04300000e+01 9.99500000e+00 1.17480000e+01 1.40000000e+00 1.50600000e+00 1.49300000e+00 3.27700000e+00 1.20910000e+01 9.51300000e+00 4.71000000e+00 1.32200000e+00 9.93100000e+00 3.71600000e+00 4.49900000e+00 7.57500000e+00 5.70500000e+00 2.16300000e+00 7.54900000e+00 1.08020000e+01 1.22210000e+01 3.51000000e+00 3.45500000e+00 2.71100000e+00 1.18300000e+00 7.70800000e+00 5.65000000e+00 1.13940000e+01 6.27200000e+00 5.84500000e+00 1.12480000e+01 5.60000000e-01 8.29300000e+00 3.89600000e+00 1.62200000e+00 8.49600000e+00 1.17950000e+01 1.21780000e+01 8.13600000e+00 1.20610000e+01 5.69600000e+00 1.18310000e+01 8.92800000e+00 5.25700000e+00 1.11190000e+01 1.24020000e+01 5.89300000e+00 1.08890000e+01 1.89200000e+00 2.65700000e+00 4.83600000e+00 5.24000000e+00 1.16540000e+01 4.75900000e+00 1.18390000e+01 8.66200000e+00 4.63400000e+00
7.29800000e+00 1.07900000e+01 1.03000000e+00 1.23210000e+01 7.46400000e+00 9.13700000e+00 7.81500000e+00 1.73200000e+00 9.43100000e+00 7.59400000e+00 9.85000000e-01 1.46100000e+00 1.03900000e+01 5.32400000e+00 6.79400000e+00 6.43900000e+00 1.04430000e+01 1.40700000e+00 1.21200000e+00 1.05580000e+01 5.89400000e+00 -3.50000000e-02 1.18000000e-01 3.47100000e+00 1.94000000e-01 1.20900000e+00 1.23790000e+01 5.68700000e+00 5.88400000e+00 1.03270000e+01 1.16580000e+01 1.23500000e+01 2.24400000e+00 4.86600000e+00 9.32000000e+00 2.08600000e+00 2.75800000e+00 1.08960000e+01 1.00670000e+01 5.42900000e+00 1.01710000e+01 3.19800000e+00 6.67000000e+00 1.19700000e+00 1.25400000e+00 5.01800000e+00 7.65800000e+00 1.67900000e+00 9.26200000e+00 1.49600000e+00 1.17420000e+01 5.46100000e+00 1.03850000e+01 8.29900000e+00 6.00000000e-02 5.62200000e+00 2.53200000e+00 8.40000000e+00 3.54600000e+00 6.02900000e+00 9.62000000e-01 5.75400000e+00 2.37100000e+00 1.17290000e+01 1.22470000e+01 3.23600000e+00 5.83400000e+00 7.22300000e+00 2.07400000e+00 2.87900000e+00 5.62100000e+00 1.21240000e+01 2.94400000e+00 2.27000000e-01 1.22960000e+01 6.90000000e-02 6.71400000e+00 3.90700000e+00 4.88500000e+00 4.06000000e-01 6.14700000e+00 5.09100000e+00 1.82200000e+00 4.35000000e-01 5.71700000e+00 3.27000000e-01 4.79400000e+00 7.29400000e+00 7.95000000e-01 3.10800000e+00 4.94200000e+00 1.02970000e+01 2.37800000e+00 1.10430000e+01 3.15500000e+00 2.89700000e+00 9.64700000e+00 5.89000000e-01 9.75300000e+00 9.71000000e+00 1.04000000e+00 5.26200000e+00 4.76300000e+00 7.35200000e+00 7.00000000e-01 4.62000000e+00 1.08770000e+01 9.53900000e+00 5.86500000e+00 1.01510000e+01 4.98500000e+00 1.12490000e+01 1.29000000e+00 1.99000000e-01 4.49100000e+00 2.30300000e+00 1.11800000e+00 9.75200000e+00 8.94600000e+00 6.99500000e+00 1.02250000e+01 6.52000000e-01 4.51100000e+00 1.23370000e+01 1.03420000e+01 8.64600000e+00 1.13770000e+01 9.89100000e+00 4.59300000e+00 1.12690000e+01 1.03670000e+01 3.75800000e+00 1.06910000e+01 8.78700000e+00 9.89700000e+00 4.85600000e+00 4.20000000e-02 5.24300000e+00 2.73300000e+00 4.70600000e+00 8.43000000e-01 2.90500000e+00 5.90400000e+00 8.05200000e+00 8.90700000e+00 6.26000000e-01 1.03860000e+01 6.87700000e+00 5.06500000e+00 3.45100000e+00 1.25010000e+01 1.56800000e+00 8.79700000e+00 4.72400000e+00 4.35300000e+00 6.78800000e+00 7.59600000e+00 -1.50000000e-02 1.51300000e+00 4.40500000e+00 3.96600000e+00 7.62700000e+00 8.83500000e+00 3.44700000e+00 6.84900000e+00 5.27300000e+00 9.39400000e+00 6.35000000e+00 6.05000000e-01 1.07910000e+01 7.52000000e+00 2.00800000e+00 5.93300000e+00 7.75700000e+00 2.93800000e+00 3.00300000e+00 2.77600000e+00 8.50500000e+00 1.22680000e+01 1.03590000e+01 5.01000000e-01 2.34900000e+00 8.74800000e+00 5.38300000e+00 5.11100000e+00 6.98300000e+00 8.83500000e+00 1.03100000e+01 6.34200000e+00 9.99000000e-01 9.18500000e+00 1.40000000e+00 1.75400000e+00 9.75500000e+00 5.87100000e+00 6.51100000e+00 2.48200000e+00 9.66500000e+00 9.54400000e+00 8.76500000e+00 1.13030000e+01 9.10600000e+00 7.88900000e+00 1.09870000e+01 1.96300000e+00 1.11290000e+01 9.52300000e+00 9.68800000e+00 1.89800000e+00 -6.10000000e-02 1.05480000e+01 8.73300000e+00 8.35400000e+00 8.27700000e+00 1.00890000e+01 1.10080000e+01 6.44600000e+00 6.70900000e+00 6.79100000e+00 5.56000000e+00 4.90900000e+00 1.06260000e+01 6.62800000e+00 7.04900000e+00 5.86200000e+00 5.11600000e+00 9.07600000e+00 7.24800000e+00 1.78200000e+00 1.12660000e+01 5.38400000e+00 8.36500000e+00 2.71600000e+00 7.28800000e+00 7.27500000e+00 5.95000000e+00 3.30800000e+00 1.57200000e+00 2.28900000e+00 1.04250000e+01 8.70000000e-01 6.46700000e+00 8.88400000e+00 9.37500000e+00 9.72800000e+00 2.56800000e+00 1.17450000e+01 8.68200000e+00 1.18500000e+00 3.55000000e-01 2.83900000e+00 7.91400000e+00 7.17400000e+00 2.30500000e+00 8.95900000e+00 4.21300000e+00 8.89100000e+00 7.17600000e+00 2.19900000e+00 7.22400000e+00 6.53700000e+00 1.11360000e+01 5.19500000e+00 6.17500000e+00 9.68800000e+00 4.65300000e+00 3.57100000e+00 6.75500000e+00 1.02580000e+01 5.28400000e+00 1.12280000e+01 8.76100000e+00 9.03600000e+00 1.03350000e+01 4.29900000e+00 4.88100000e+00 8.83100000e+00 5.18100000e+00 7.81900000e+00 1.06800000e+00 3.90800000e+00 6.52300000e+00 1.00470000e+01 8.49200000e+00 1.20990000e+01 1.03900000e+01 9.23800000e+00 6.32000000e+00 3.32300000e+00 2.85900000e+00 8.79100000e+00 2.42000000e+00 2.59200000e+00 8.56900000e+00 3.43300000e+00 7.80100000e+00 1.19360000e+01 1.10560000e+01 8.01300000e+00 9.50000000e-01 7.88200000e+00 5.58000000e-01 4.59200000e+00 1.45900000e+00 8.99900000e+00 1.23270000e+01 8.36400000e+00 6.57000000e+00 1.06650000e+01 8.59900000e+00 6.40500000e+00 9.69500000e+00 2.54600000e+00 1.23350000e+01 3.62300000e+00 5.54000000e+00 1.08920000e+01 9.13100000e+00 1.76400000e+00 5.03400000e+00 7.28800000e+00 4.38800000e+00 3.54900000e+00 2.94200000e+00 2.02900000e+00 8.72200000e+00 1.15490000e+01 2.43000000e+00 1.00020000e+01 1.04660000e+01 8.44000000e-01 2.68000000e+00 3.45500000e+00 2.26100000e+00 4.94500000e+00 2.00000000e-03 7.96900000e+00 6.34000000e+00 7.46700000e+00 1.22240000e+01 1.02380000e+01 4.95800000e+00 4.68000000e-01 6.92000000e+00 9.58600000e+00 2.39000000e-01 4.38800000e+00 6.22800000e+00 5.42400000e+00 1.24830000e+01 8.39500000e+00 4.05600000e+00 7.04900000e+00 1.20450000e+01 1.07080000e+01 5.07700000e+00 1.18570000e+01 3.01900000e+00 1.20930000e+01 1.16010000e+01 5.84200000e+00 3.49200000e+00 4.35000000e+00 9.15500000e+00 1.61600000e+00 7.07000000e-01 5.99700000e+00 7.51000000e+00 7.18000000e+00 2.31900000e+00 9.50000000e-02 4.48800000e+00 2.50300000e+00 1.01800000e+00 1.19330000e+01 4.46700000e+00 1.16000000e+00 1.51000000e-01 2.27100000e+00 7.86900000e+00 5.79900000e+00 4.56900000e+00 6.75800000e+00 1.12470000e+01 2.41600000e+00 7.47000000e+00 3.90700000e+00 5.21900000e+00 7.69000000e-01 7.90500000e+00 8.77800000e+00 1.15450000e+01 5.51400000e+00 8.74600000e+00 9.85900000e+00 1.86100000e+00 8.18000000e+00 1.08550000e+01 5.83600000e+00 1.03860000e+01 4.80000000e-01 7.57600000e+00 6.18200000e+00 2.65000000e+00 4.24400000e+00 7.59300000e+00 1.07600000e+01 1.09570000e+01 9.81100000e+00 8.91200000e+00 2.34900000e+00 1.20570000e+01 2.48800000e+00 1.78100000e+00 5.08200000e+00 3.31800000e+00 1.07070000e+01 4.29100000e+00 3.07700000e+00 1.01230000e+01 6.05100000e+00 1.22000000e+00 8.12700000e+00 7.06700000e+00 6.75000000e-01 4.06200000e+00 5.52600000e+00 3.54200000e+00 5.29400000e+00 1.23320000e+01 4.66300000e+00 2.48000000e+00 9.68300000e+00 5.53500000e+00 2.18600000e+00 9.58700000e+00 1.90000000e+00 4.81600000e+00 1.53400000e+00 1.00220000e+01 1.51500000e+00 7.96100000e+00 7.97900000e+00 4.81300000e+00 1.55000000e+00 8.50700000e+00 1.83700000e+00 7.79000000e+00 7.15700000e+00 4.18300000e+00 8.84500000e+00 6.13700000e+00 7.93000000e+00 9.76400000e+00 3.83600000e+00 1.19780000e+01 8.28300000e+00 8.74200000e+00 4.34400000e+00 9.78600000e+00 4.82700000e+00 1.19900000e+01 1.16180000e+01 7.34100000e+00 4.55000000e-01 1.45600000e+00 3.54900000e+00 5.71700000e+00 1.69700000e+00 2.21600000e+00 1.14450000e+01 3.47100000e+00 7.16700000e+00 2.86300000e+00 6.62400000e+00 6.03500000e+00 1.05150000e+01 1.24080000e+01 7.28800000e+00 4.69300000e+00 9.21600000e+00 8.29700000e+00 6.50900000e+00 5.05400000e+00 2.89300000e+00 1.16460000e+01 2.39200000e+00 1.14390000e+01 2.03100000e+00 3.27400000e+00 1.10990000e+01 2.19500000e+00 2.38000000e+00 1.19730000e+01 1.24200000e+00 2.31000000e-01 1.11610000e+01 8.33900000e+00 3.18300000e+00 2.84000000e-01 4.86900000e+00 6.42000000e-01 5.52300000e+00 1.22300000e+01 2.50800000e+00 7.27700000e+00 2.93400000e+00 1.56400000e+00 1.57600000e+00 4.28200000e+00 1.05190000e+01 6.06500000e+00 2.06500000e+00 1.19650000e+01 3.18000000e+00 2.43300000e+00 1.43900000e+00 8.11300000e+00 1.10190000e+01 7.02000000e+00 1.06600000e+01 1.01470000e+01 1.21200000e+01 1.06100000e+00 5.62000000e-01 1.75400000e+00 3.17700000e+00 1.17090000e+01 9.63800000e+00 5.19700000e+00 1.24600000e+00 9.82600000e+00 3.85600000e+00 4.20300000e+00 7.95200000e+00 5.78800000e+00 2.61500000e+00 7.24200000e+00 1.08600000e+01 2.40000000e-02 3.70000000e+00 3.39600000e+00 2.28800000e+00 1.33700000e+00 7.79800000e+00 5.42000000e+00 1.13400000e+01 6.09600000e+00 5.73000000e+00 1.08060000e+01 6.31000000e-01 8.48100000e+00 3.94700000e+00 2.18100000e+00 8.52100000e+00 1.15360000e+01 1.24990000e+01 8.52200000e+00 1.23760000e+01 5.96400000e+00 1.18050000e+01 8.94300000e+00 5.92400000e+00 1.12410000e+01 1.26020000e+01 6.21500000e+00 1.08560000e+01 1.59100000e+00 2.52300000e+00 4.01000000e+00 5.46600000e+00 1.10830000e+01 4.95700000e+00 1.18690000e+01 7.96600000e+00 4.35600000e+00
7.49000000e+00 1.09300000e+01 1.32700000e+00 5.18000000e-01 7.97000000e+00 9.40900000e+00 7.96800000e+00 1.50700000e+00 9.39100000e+00 7.05700000e+00 1.20800000e+00 1.33700000e+00 1.00360000e+01 5.79900000e+00 6.12800000e+00 6.73700000e+00 1.04040000e+01 1.66200000e+00 1.22100000e+00 1.09900000e+01 5.83700000e+00 6.31000000e-01 1.22270000e+01 3.37200000e+00 1.20220000e+01 1.59600000e+00 3.23000000e-01 5.59700000e+00 6.16900000e+00 1.00300000e+01 1.21350000e+01 1.24480000e+01 2.29100000e+00 4.96800000e+00 8.87000000e+00 2.64400000e+00 2.42600000e+00 1.11170000e+01 1.03160000e+01 5.28500000e+00 9.98500000e+00 3.76300000e+00 6.21900000e+00 1.60800000e+00 1.02300000e+00 5.00500000e+00 7.16900000e+00 1.89500000e+00 9.27800000e+00 1.12700000e+00 1.12470000e+01 5.21100000e+00 9.56400000e+00 9.15100000e+00 1.42000000e-01 5.75500000e+00 2.21500000e+00 8.59500000e+00 2.61400000e+00 6.36600000e+00 1.06000000e+00 5.93400000e+00 2.50000000e+00 1.22280000e+01 1.20020000e+01 3.15700000e+00 5.85400000e+00 6.66100000e+00 2.08500000e+00 2.83700000e+00 5.01400000e+00 1.22780000e+01 2.55000000e+00 4.58000000e-01 1.22600000e+01 1.21230000e+01 7.08800000e+00 3.26900000e+00 5.09700000e+00 6.11000000e-01 6.04900000e+00 4.43000000e+00 2.10600000e+00 4.94000000e-01 6.00100000e+00 7.54000000e-01 4.75500000e+00 7.44000000e+00 1.42100000e+00 2.96900000e+00 5.31500000e+00 9.77500000e+00 2.78900000e+00 1.13830000e+01 3.15400000e+00 3.48100000e+00 1.01090000e+01 2.62000000e-01 9.06400000e+00 1.01140000e+01 2.25000000e-01 5.02400000e+00 4.72500000e+00 6.87200000e+00 9.97000000e-01 4.53000000e+00 1.03490000e+01 1.01140000e+01 5.51500000e+00 1.04040000e+01 5.41400000e+00 1.05510000e+01 1.62600000e+00 8.81000000e-01 4.07800000e+00 2.53800000e+00 1.29100000e+00 1.02340000e+01 8.59300000e+00 6.81000000e+00 1.05940000e+01 1.20020000e+01 4.73600000e+00 1.69000000e-01 1.03100000e+01 8.46200000e+00 1.08760000e+01 9.97400000e+00 4.28300000e+00 1.03030000e+01 9.81800000e+00 3.52200000e+00 1.12120000e+01 8.97100000e+00 9.62900000e+00 5.11700000e+00 5.70000000e-01 5.07100000e+00 2.35600000e+00 4.10100000e+00 1.02500000e+00 3.28900000e+00 6.61000000e+00 7.62400000e+00 9.30500000e+00 3.99000000e-01 9.61500000e+00 6.64600000e+00 5.32800000e+00 3.49500000e+00 3.50000000e-01 2.00400000e+00 8.36700000e+00 4.71100000e+00 4.82700000e+00 7.01000000e+00 6.94300000e+00 2.37000000e-01 1.47400000e+00 4.57700000e+00 4.12800000e+00 7.60300000e+00 9.19700000e+00 3.08900000e+00 6.99400000e+00 4.79800000e+00 9.57400000e+00 6.70400000e+00 9.48000000e-01 1.11210000e+01 7.39000000e+00 2.33700000e+00 6.70200000e+00 7.69100000e+00 2.60600000e+00 3.56100000e+00 3.35300000e+00 8.96800000e+00 1.20890000e+01 9.90000000e+00 7.82000000e-01 2.73700000e+00 8.85300000e+00 5.61600000e+00 5.15400000e+00 7.09000000e+00 8.72200000e+00 1.03830000e+01 6.50300000e+00 9.78000000e-01 9.10600000e+00 1.78900000e+00 1.47900000e+00 1.00090000e+01 5.75000000e+00 6.76700000e+00 2.51700000e+00 9.76000000e+00 9.71900000e+00 8.90600000e+00 1.08800000e+01 9.24300000e+00 8.06700000e+00 1.07370000e+01 1.87300000e+00 1.12840000e+01 9.53300000e+00 9.06500000e+00 1.82700000e+00 1.18820000e+01 1.14400000e+01 8.55700000e+00 8.18400000e+00 8.52500000e+00 1.00210000e+01 1.09600000e+01 6.50500000e+00 6.81100000e+00 6.78300000e+00 5.53100000e+00 5.22300000e+00 1.00910000e+01 7.30100000e+00 7.31000000e+00 6.38500000e+00 4.55000000e+00 8.89400000e+00 7.36600000e+00 1.84600000e+00 1.15320000e+01 5.38700000e+00 8.84600000e+00 2.72300000e+00 7.83300000e+00 7.11600000e+00 5.90500000e+00 2.82200000e+00 3.97000000e-01 2.53000000e+00 1.06050000e+01 1.59300000e+00 7.07000000e+00 9.08600000e+00 9.13400000e+00 9.03000000e+00 2.49600000e+00 1.20060000e+01 8.74600000e+00 9.59000000e-01 3.68000000e-01 3.47800000e+00 8.46400000e+00 7.27600000e+00 2.11100000e+00 9.01300000e+00 3.57800000e+00 8.67300000e+00 7.44800000e+00 1.65100000e+00 7.60600000e+00 6.22100000e+00 1.07390000e+01 5.40900000e+00 5.52900000e+00 9.56800000e+00 3.27100000e+00 3.52900000e+00 6.49100000e+00 1.03730000e+01 5.45800000e+00 1.18440000e+01 9.02100000e+00 8.89300000e+00 1.00950000e+01 4.04900000e+00 4.71800000e+00 8.98100000e+00 4.98300000e+00 7.87600000e+00 5.91000000e-01 4.59700000e+00 6.89900000e+00 1.01880000e+01 8.75700000e+00 1.17730000e+01 1.07230000e+01 9.16100000e+00 6.19900000e+00 3.40800000e+00 2.47600000e+00 8.52100000e+00 2.42600000e+00 2.49300000e+00 8.55000000e+00 3.38800000e+00 7.08200000e+00 1.16670000e+01 1.11900000e+01 8.28800000e+00 6.52000000e-01 8.29600000e+00 1.06600000e+00 4.17300000e+00 1.83500000e+00 8.67000000e+00 1.23180000e+01 8.24500000e+00 6.47600000e+00 1.07300000e+01 8.37500000e+00 6.27500000e+00 9.79300000e+00 2.83600000e+00 -7.00000000e-03 3.30100000e+00 5.41500000e+00 1.03710000e+01 9.64400000e+00 1.79900000e+00 5.93600000e+00 7.33100000e+00 4.09800000e+00 3.83600000e+00 2.99800000e+00 2.39700000e+00 8.69700000e+00 1.15070000e+01 2.46300000e+00 1.02220000e+01 1.07370000e+01 8.70000000e-01 3.10100000e+00 4.19700000e+00 2.15300000e+00 4.37300000e+00 8.80000000e-02 7.90500000e+00 5.91700000e+00 7.58300000e+00 1.15390000e+01 1.05300000e+01 3.78400000e+00 1.06300000e+00 7.25000000e+00 9.81900000e+00 1.22040000e+01 4.73600000e+00 6.50900000e+00 5.25500000e+00 1.20450000e+01 8.42800000e+00 3.80300000e+00 6.27500000e+00 1.19100000e+01 1.07820000e+01 4.55000000e+00 1.18240000e+01 2.38100000e+00 1.23350000e+01 1.15900000e+01 5.51300000e+00 4.03100000e+00 4.39700000e+00 8.31600000e+00 1.40900000e+00 1.23670000e+01 5.83900000e+00 7.43900000e+00 7.07400000e+00 2.55300000e+00 3.79000000e-01 4.18400000e+00 1.80900000e+00 1.02200000e+00 1.20340000e+01 3.66300000e+00 1.47800000e+00 2.57000000e-01 1.52700000e+00 8.21200000e+00 5.49000000e+00 4.40300000e+00 6.17300000e+00 1.11510000e+01 2.39800000e+00 7.61500000e+00 4.10400000e+00 5.32600000e+00 3.10000000e-01 7.92500000e+00 8.64400000e+00 1.13820000e+01 5.26000000e+00 8.62800000e+00 9.61800000e+00 1.89600000e+00 8.13500000e+00 1.07770000e+01 5.80900000e+00 1.13530000e+01 7.43000000e-01 7.04000000e+00 6.03100000e+00 3.20900000e+00 4.35800000e+00 8.03900000e+00 1.08730000e+01 1.10340000e+01 9.72000000e+00 8.50500000e+00 1.84700000e+00 1.20180000e+01 2.53800000e+00 2.14100000e+00 5.16100000e+00 3.38800000e+00 1.05170000e+01 4.52500000e+00 3.09900000e+00 9.89400000e+00 5.97800000e+00 9.48000000e-01 8.30300000e+00 7.43800000e+00 1.46600000e+00 3.93800000e+00 5.00900000e+00 4.16800000e+00 5.19400000e+00 2.10000000e-02 4.76200000e+00 2.47800000e+00 9.86700000e+00 4.83900000e+00 2.29200000e+00 1.05000000e+01 1.08000000e+00 4.61500000e+00 1.19100000e+00 1.00030000e+01 2.18500000e+00 8.42500000e+00 7.72100000e+00 4.82200000e+00 1.63700000e+00 8.47000000e+00 2.23800000e+00 8.03500000e+00 6.98700000e+00 4.38100000e+00 8.68300000e+00 5.82900000e+00 8.17500000e+00 9.67700000e+00 3.42200000e+00 1.18430000e+01 8.62600000e+00 8.36500000e+00 4.13200000e+00 9.90400000e+00 4.31100000e+00 1.22270000e+01 1.14980000e+01 7.39800000e+00 3.70000000e-01 1.09900000e+00 4.03600000e+00 6.27600000e+00 4.51000000e-01 2.45700000e+00 1.16350000e+01 3.32700000e+00 7.16000000e+00 2.90000000e+00 6.36200000e+00 6.42000000e+00 1.05020000e+01 1.18260000e+01 7.37700000e+00 4.16000000e+00 9.56100000e+00 8.34800000e+00 6.17000000e+00 4.85300000e+00 3.09600000e+00 1.13840000e+01 3.12000000e+00 1.12390000e+01 2.10700000e+00 4.00700000e+00 1.09360000e+01 2.22700000e+00 3.08100000e+00 1.17120000e+01 1.21300000e+00 6.16000000e-01 1.11680000e+01 8.34500000e+00 3.42600000e+00 7.27000000e-01 4.47700000e+00 5.00000000e-01 5.47900000e+00 -7.90000000e-02 2.41400000e+00 7.14700000e+00 3.22700000e+00 1.67000000e+00 2.12700000e+00 5.05100000e+00 1.03840000e+01 5.60700000e+00 2.40700000e+00 1.22340000e+01 3.05100000e+00 2.96900000e+00 1.89700000e+00 8.36700000e+00 1.07600000e+01 7.18500000e+00 1.07030000e+01 1.05790000e+01 1.14670000e+01 1.38000000e+00 1.12300000e+00 9.69000000e-01 3.19300000e+00 1.21010000e+01 1.00010000e+01 4.63100000e+00 1.31200000e+00 1.01160000e+01 3.14800000e+00 4.33600000e+00 8.00100000e+00 5.50300000e+00 2.59000000e+00 7.50500000e+00 1.06620000e+01 3.69000000e-01 3.26300000e+00 3.65300000e+00 2.65500000e+00 6.68000000e-01 8.08700000e+00 5.11100000e+00 1.11800000e+01 6.12700000e+00 5.07200000e+00 1.16560000e+01 7.30000000e-01 7.93500000e+00 3.64500000e+00 1.56400000e+00 8.25700000e+00 1.22510000e+01 -3.20000000e-02 7.96100000e+00 1.23870000e+01 5.90600000e+00 1.17960000e+01 8.69500000e+00 5.74900000e+00 1.10890000e+01 3.84000000e-01 6.18800000e+00 1.10540000e+01 1.58000000e+00 3.10600000e+00 4.88400000e+00 5.28800000e+00 1.14090000e+01 5.43800000e+00 1.12080000e+01 8.16100000e+00 4.09900000e+00