-3.00444665e+04
-3.00427484e+04
-3.00421693e+04
-3.00435609e+04
-3.00425746e+04
-3.00435342e+04
-3.00438106e+04
-3.00433435e+04
-3.00437162e+04
-3.00432207e+04
-3.00434341e+04
-3.00428605e+04
-3.00436436e+04
-3.00442136e+04
-3.00427799e+04
-3.00423781e+04
-3.00433251e+04
-3.00428109e+04
-3.00426317e+04
-3.00442462e+04
-3.00422700e+04
-3.00427250e+04
-3.00433396e+04
-3.00425779e+04
-3.00429246e+04
-3.00416172e+04
-3.00420310e+04
-3.00429170e+04
-3.00427208e+04
-3.00420749e+04
-3.00421988e+04
-3.00428419e+04
-3.00419793e+04
-3.00417990e+04
-3.00419731e+04
-3.00419739e+04
-3.00414044e+04
-3.00421362e+04
-3.00414321e+04
-3.00414610e+04
-3.00427073e+04
-3.00416352e+04
-3.00429587e+04
-3.00422991e+04
-3.00415474e+04
-3.00419186e+04
-3.00424732e+04
-3.00423276e+04
-3.00423040e+04
-3.00422016e+04
-3.00414354e+04
-3.00429074e+04
-3.00416263e+04
-3.00422416e+04
-3.00423609e+04
-3.00411834e+04
-3.00421487e+04
-3.00425671e+04
-3.00418031e+04
-3.00422890e+04
-3.00423379e+04
-3.00416931e+04
-3.00427041e+04
-3.00420506e+04
-3.00418021e+04
-3.00428649e+04
-3.00418011e+04
-3.00418698e+04
-3.00427528e+04
-3.00422436e+04
-3.00423794e+04
-3.00425393e+04
-3.00419334e+04
-3.00434142e+04
-3.00419337e+04
-3.00421622e+04
-3.00426276e+04
-3.00417803e+04
-3.00427632e+04
-3.00427135e+04
-3.00415554e+04
-3.00434471e+04
-3.00437595e+04
-3.00426303e+04
-3.00433038e+04
-3.00425369e+04
-3.00424219e+04
-3.00433129e+04
-3.00427658e+04
-3.00423886e+04
-3.00429056e+04
-3.00425224e+04
-3.00424710e+04
-3.00414711e+04
-3.00429015e+04
-3.00423793e+04
-3.00434340e+04
-3.00425508e+04
-3.00419192e+04
-3.00421800e+04
-3.00406851e+04
-3.00410053e+04
-3.00408253e+04
-3.00414643e+04
-3.00410132e+04
-3.00412823e+04
-3.00399815e+04
-3.00410538e+04
-3.00402373e+04
-3.00407782e+04
-3.00402685e+04
-3.00397345e+04
-3.00408681e+04
-3.00395677e+04
-3.00400913e+04
-3.00402109e+04
-3.00399279e+04
-3.00399632e+04
-3.00390926e+04
-3.00389861e+04
-3.00383663e+04
-3.00409920e+04
-3.00399672e+04
-3.00389281e+04
-3.00390321e+04
-3.00390093e+04
-3.00386305e+04
-3.00395616e+04
-3.00408203e+04
-3.00412478e+04
-3.00413343e+04
-3.00414823e+04
-3.00416337e+04
-3.00410847e+04
-3.00404101e+04
-3.00420130e+04
-3.00379576e+04
-3.00394109e+04
-3.00402743e+04
-3.00395332e+04
-3.00387875e+04
-3.00395101e+04
-3.00392091e+04
-3.00392592e+04
-3.00392444e+04
-3.00402769e+04
-3.00395753e+04
-3.00400560e+04
-3.00402477e+04
-3.00386899e+04
-3.00379765e+04
-3.00385040e+04
-3.00387504e+04
-3.00390688e+04
-3.00388715e+04
-3.00386739e+04
-3.00394192e+04
-3.00384381e+04
-3.00378124e+04
-3.00388635e+04
-3.00405115e+04
-3.00407686e+04
-3.00388371e+04
-3.00388506e+04
-3.00383352e+04
-3.00396642e+04
-3.00386098e+04
-3.00381988e+04
-3.00387764e+04
-3.00383817e+04
-3.00398026e+04
-3.00391702e+04
-3.00401502e+04
-3.00411645e+04
-3.00411760e+04
-3.00450660e+04
-3.00413414e+04
-3.00402548e+04
-3.00384927e+04
