-2.79648630e-01 -1.48298671e-01 -1.03838946e+00 -8.08653663e-01 -1.01782526e+00 -1.61704610e+00 1.66584153e+00 -2.43857071e+00 -2.26239973e+00 -1.22967647e-01 -1.58486412e+00 8.44048500e-01 -1.32730126e+00 -5.97885921e-01 -5.08538536e-02 5.84425681e-01 -4.99338614e-01 -1.22474304e+00 2.19390862e+00 9.41963830e-01 -5.22612756e-02 -2.87136351e+00 5.30754926e-01 -1.55104794e+00 1.73977824e-01 6.87926990e-01 7.42567564e-01 -8.55244113e-01 -2.28335577e-01 -8.54129283e-01 1.45961539e-01 -1.08062755e+00 -1.09470074e+00 -5.06125813e-01 4.97540385e-01 3.75127068e-01 1.84717734e+00 2.28913098e+00 1.51330517e-01 -1.08146161e+00 -9.56439142e-01 -5.20460228e-01 1.04647507e-01 1.32483763e+00 -1.85282965e-01 1.10150542e+00 1.39583660e-01 1.34257722e+00 5.03009636e-01 5.69833641e-02 -9.76614076e-01 3.19446739e-01 4.92456799e-01 -1.16825024e+00 1.46536129e+00 -1.58266839e-02 -2.74894659e-01 -3.54306787e-01 -4.37499464e-01 -3.57061981e-01 -4.24391979e-01 -5.75857222e-01 -5.30161516e-03 1.73708218e+00 9.81698690e-01 1.37859838e+00 4.95702046e-01 -1.84473582e-01 6.45315065e-01 1.06790162e+00 3.27088572e-01 -4.93627679e-01 -7.46395937e-01 -1.12951759e+00 2.44736080e+00 -1.02211438e+00 -1.31029033e+00 -2.41819986e-01 2.90596902e-01 -4.83185914e-01 1.36403462e+00 1.68503482e+00 -7.35672379e-01 1.23280807e-01 1.39956984e-01 -3.17786320e-01 1.18044447e+00 6.44247029e-01 1.19879237e-01 -7.88275612e-01 -5.39087358e-01 4.28566937e-01 -8.60480422e-01 6.12225993e-01 -1.37216702e-01 -1.06030246e+00 -5.81656088e-01 -1.33297980e+00 4.74902334e-01 -1.27454222e-01 -2.99689352e-01 7.46129057e-02 -3.15632764e-01 -1.35137810e+00 -2.64998483e-02 -1.55603022e+00 -1.14763770e-01 -6.80461020e-01 -7.23500262e-01 -1.57283238e+00 -1.54735943e+00 7.65080660e-01 9.74172042e-01 -2.87506950e-01 -9.08114740e-01 7.59720938e-01 1.24861470e+00 5.87139223e-01 1.29541187e+00 -2.21607051e+00 6.83442986e-01 -1.67776476e+00 4.06174169e-01 4.48361348e-01 -1.74067298e-01 -9.71723838e-01 6.85268983e-01 -1.45554481e+00 1.57252796e-01 -7.12123129e-01 -5.14807401e-01 -2.87171164e-01 -1.60364860e-02 -1.38860562e+00 -2.28408082e-01 -9.76247951e-02 -9.69805280e-01 -1.07015236e+00 -9.72391810e-01 -3.87448823e-01 1.22997626e+00 2.28355117e-01 -5.15036229e-01 6.17311636e-01 6.10877707e-01 1.91649583e+00 6.44637322e-02 7.84570652e-01 5.43623299e-01 7.38816839e-02 -1.82496917e-03 -2.11626336e+00 -8.04166573e-01 8.59630930e-01 6.75207227e-01 3.39738401e-01 -6.19785037e-01 2.91274645e-01 -1.25222299e+00 -2.81520393e-01 3.52438109e-01 -4.99895001e-01 -3.52025190e-01 4.90673482e-01 -1.20827306e+00 -8.75667930e-01 -1.87755698e+00 -1.52294835e+00 2.78295201e-01 -1.16042123e-01 -1.15365048e+00 -8.98437107e-01 -7.25252212e-01 8.73738060e-01 -9.19981411e-01 2.97774394e-01 -1.60894970e+00 -5.70992694e-01 -1.12924043e+00 -2.32180713e+00 -6.53267488e-01 -6.75505989e-02 4.59254598e-01 4.61668864e-01 -1.13789733e+00 8.22295937e-01 1.25975426e+00 -4.62756955e-01 -8.53093128e-01 -4.95273700e-01 -5.22791191e-01 -9.42785041e-01 4.59910744e-01 -4.56194985e-01 -1.22937822e-01 1.44413734e-01 2.44226024e-01 -6.56787328e-01 -4.34684620e-01 3.74983600e-01 9.73795118e-02 -1.73701173e-01 2.59801768e-01 -3.24797205e-02 1.71539492e+00 1.82496917e-02 1.40196096e-01 2.39427831e-01 -2.89743810e-01 2.36458721e-01 6.16226116e-01 -6.09943368e-01 1.55690131e+00 -3.34924781e-01 2.47867735e-01 -1.77875616e-01 6.40209882e-02 4.82227921e-01 1.06266016e+00 8.46614462e-01 -2.01672206e-01 1.08764152e+00 2.90955828e-01 4.32052839e-01 1.68938975e-01 -2.30720018e-01 1.77152622e-01 1.58714211e-01 5.26364510e-01 -7.07383557e-01 5.66663984e-01 -2.14752746e+00 -5.18881571e-01 1.75032490e-01 -1.92577700e-01 2.80215301e-01 -2.65457682e-01 -5.78285372e-01 -1.25283697e+00 1.37180861e+00 -7.54634267e-02 -3.92319522e-01 -8.46870029e-03 4.86200790e-01 3.03728041e-01 -1.86151638e+00 -1.37826208e+00 -2.31095399e-01 6.46260203e-01 -3.36055038e-01 1.04768349e-01 -7.94340330e-01 1.50109294e+00 3.10275613e-02 -1.47192326e+00 -1.43554986e-01 1.91211929e-01 9.10837539e-01 -2.56657309e-01 4.12218319e-01 1.48788467e+00 1.48211922e+00 -8.69680858e-02 3.42343443e-01 7.17483880e-01 -1.50441943e-01 6.04520396e-01 -6.67972657e-02 2.63538096e-02 2.57267689e-01 2.27988992e-01 1.42209784e-01 -4.27465991e-01 9.77031109e-01 2.07021130e+00 3.94581064e-01 -4.58479668e-01 -4.21873326e-01 -2.43226379e-01 -1.37750977e-01 -2.33702498e-01 2.70981954e-01 -1.71347071e-01 -8.91134145e-02 -1.03566049e+00 -1.41124265e-01 -1.32965125e-01 3.36778547e-02 -1.15355124e-02 -1.18587515e-01 -9.91796956e-01 1.79470729e-01 9.18598157e-01 -3.83027554e-02 -1.01703593e-01 9.99034612e-01 9.90029579e-01 -2.20780132e-01 -6.40261304e-02 4.44504693e-01 -2.44069187e-01 2.38339740e-01 -2.78369763e-01 -6.84754762e-01 2.21033643e-01 1.47963091e+00 6.72273598e-01 1.37628592e-01 -7.25855907e-01 -1.73002861e-01 -7.06727412e-01 1.25600971e-01 -1.32117690e-01 -2.09570636e-01 6.99068095e-01 -5.55870493e-01 9.13053315e-01 2.37794666e-01 -9.59567661e-01 1.86491641e+00 1.32652273e+00 -1.60048100e-01 2.27457802e-01 -6.06804565e-01 7.13469873e-01 7.10067275e-01 -1.78900972e-01 9.08351796e-01 2.18656401e-01 3.58847869e-01 6.67377703e-01 -2.89079437e-02 6.74854472e-01 -2.91549753e-01 9.71280065e-01 2.83270800e-01 7.64131923e-02 1.77107628e+00 -8.39972273e-01 6.65709057e-01 8.43820701e-01 -2.02430271e+00 -6.04134731e-01 5.97162413e-01 7.69039131e-01 -1.94843510e+00 8.12256293e-01 -3.60086113e-01 4.82866583e-01 -1.50164264e-01 1.46216335e+00 6.64270782e-01 -1.70941350e-01 -9.05032501e-01 -2.25505306e-01 -5.35644651e-01 -8.28553489e-02 3.55346541e-01 -2.59587338e-01 1.82633186e-01 1.27365005e+00 1.05961598e+00 6.00957361e-01 -4.30556971e-02 8.20677685e-01 2.62566733e-01 -1.67450306e-01 -1.17582728e-01 7.34041786e-01 -1.26336666e+00 -1.23507167e+00 -2.74883347e-01 7.31581240e-01 1.71814137e+00 1.55281531e+00 3.67831819e-01 1.80352412e+00 7.09469237e-01 -1.09055047e+00 1.55345037e-01 -1.02806134e+00 7.51826622e-01 2.82071637e-01 -2.76557135e-01 1.37149133e+00 5.05636789e-01 -3.42916284e-01 2.80841622e-01 -1.06708195e+00 9.55784025e-01 -1.44332487e-01 4.10181491e-01 2.58950219e-01 -3.60785453e-01 -5.57744313e-01 3.26345523e-01 -3.99208022e-01 6.49743019e-01 6.48674469e-01 3.89593124e-01 3.19727503e-01 9.03514522e-01 4.84574824e-01 2.77591233e-01 3.32305855e-01 2.86648716e-01 2.22220979e-01 -6.38867766e-02 8.59112595e-01 8.23471960e-01 -4.79711840e-01 3.44384385e-01 -2.13308506e-01 7.98273090e-01 -3.67800451e-01 1.18996321e-01 -1.67015790e-01 -9.17163996e-03 -2.70901222e-01 4.31744307e-01 1.19250346e-01 -4.11287065e-01 -3.48970719e-02 4.33696288e-01 4.90131493e-01 -1.34917621e-01 -1.29618474e+00 -5.69211948e-01 -4.85115785e-03 -3.12184914e-01 4.38554645e-01 -1.46530267e-01 -8.07123342e-01 -5.18762786e-01 5.19766545e-01 -2.17483464e-01 2.27490712e-01 -2.49015990e-01 1.35687924e-01 -1.43410233e+00 -8.36935286e-01 6.36284322e-01 -2.38166448e-02 5.18177603e-01 -5.43719972e-01 -3.27322028e-02 1.34635057e+00 6.04482858e-01 1.88139461e-01 4.07766711e-02 6.20615503e-01 3.89845092e-01 -1.25366486e-01 -3.72684519e-01 7.64265106e-01 -4.41804520e-01 -1.22177290e-01 3.44286168e-02 -7.48752611e-01 -1.05929459e+00 2.03148945e+00 4.64493479e-01 -5.22299596e-01 7.25462528e-03 1.50254767e-01 -4.30457212e-01 6.48942378e-01 9.38060381e-01 7.92516904e-01 4.01313241e-02 -3.01462899e-01 2.77537239e-01 1.23749776e-01 7.45841093e-02 5.35325834e-01 -4.37441872e-01 -9.53626869e-01 -2.35640082e-01 -2.56685077e-01 1.17548275e-01 3.88054575e-01 -1.03110501e+00 1.01537500e-01 -1.18814646e+00 -1.19345219e+00 2.02018277e-01 -2.75771406e-01 3.10583631e-01 -1.43707812e+00 -8.73907752e-02 -1.29060133e-01 -5.70397741e-01 7.06277983e-01 -5.84322837e-01 -2.00651478e-01 -7.44183760e-01 -4.47858954e-01 1.73491885e-01 1.73480058e-01 9.05054099e-01 1.59111190e-01 -6.84601010e-01 4.26510568e-01 7.58834936e-01 -8.57675348e-01 1.53998293e-01 7.11705068e-01 7.61447691e-02 -6.73449107e-02 -1.46850112e-01 4.02672841e-01 7.14092080e-01 7.93382337e-01 2.09413799e-01 4.15279989e-01 -7.23426728e-01 3.21601323e-01 -2.31019809e-01 4.13445764e-01 -3.44449176e-01 8.37207823e-02 5.29123304e-01 -2.34932000e-01 -2.34614726e-01 -1.06862770e-01 -6.55666842e-01 5.89448074e-01 -5.62948740e-01 -4.54892979e-01 9.09027482e-01 2.00055497e-01 -9.47306069e-01 -2.36512251e+00 5.15197694e-03 5.08419751e-01 1.56369056e+00 1.27809446e+00 6.02559673e-01 -7.62692105e-03 1.10410944e+00 1.02137082e-01 -5.10101767e-02 2.07369257e-01 2.97067341e-01 5.94154736e-01 -7.13923416e-02 -2.16247277e-01 1.38059509e-01 1.08536558e-02 1.38935741e-01 1.09980489e-01 1.04839105e+00 -5.31915522e-01 3.99957756e-01 -5.40024268e-02 -2.97617043e-01 -5.38116510e-02 4.95347233e-01 -7.65752746e-01 1.00653349e+00 1.47427067e-03 -5.25237338e-01 5.52060632e-01 -1.22761444e-01 1.25532580e-01 8.03999966e-01 -7.32176193e-01 -4.99384380e-01 -2.52753860e-01 1.59576148e+00 -2.93251309e-01 -1.23792200e+00 3.90505865e-01 1.97660771e-01 -8.71242547e-01 3.67611218e-01
-6.46110565e-01 -4.86607025e-03 -4.29299701e-01 -4.70686752e-02 -1.27570590e+00 9.23914170e-01 1.65596952e+00 1.27486052e+00 -1.26594497e+00 -3.46998682e-01 -1.80061825e+00 7.01770325e-01 -1.72909016e+00 -1.59061310e+00 2.64237436e-02 1.25884821e+00 -7.62718330e-01 4.40093193e-01 -2.35461236e+00 4.14950374e-02 6.47975643e-01 -1.73890149e+00 -1.53282498e-01 -2.03881144e+00 7.27595515e-01 -1.25909452e+00 9.39697145e-02 -8.68767602e-01 1.68506618e+00 1.90519737e+00 -2.49914333e-01 -1.79502045e+00 -9.21286503e-01 5.61304777e-01 -8.50659836e-02 -2.13824064e+00 -2.45488590e+00 7.66828496e-01 -9.28188887e-01 -1.14462437e-01 1.67404026e-01 -1.29945673e+00 6.33109009e-01 -9.49801582e-02 4.01905623e-01 5.19608679e-01 6.63189376e-01 -3.63749421e-01 -7.29851401e-01 -1.15432051e+00 -6.99978780e-01 1.27257173e+00 1.28531720e+00 6.46430924e-01 1.97629918e-01 -7.58805111e-01 1.62181910e+00 -8.28037211e-01 -1.03119294e+00 -1.04248780e+00 7.63306599e-01 3.25202411e-01 1.21135479e-01 7.67029042e-01 6.03142799e-01 -1.34610117e-01 1.37451186e-02 -9.86791018e-01 -5.33098230e-01 5.25201343e-01 1.02101806e+00 1.41456965e+00 -3.01445930e-01 1.21594935e+00 -1.21407604e+00 1.20702762e+00 -1.08479994e-01 5.22503227e-01 -2.81954395e-01 -1.19100553e+00 -1.09984398e+00 1.14365763e-01 4.08034105e-03 6.32317109e-01 -1.19905977e-01 -4.98750346e-01 8.43807331e-01 2.18358153e-01 1.93812601e+00 -8.37602230e-01 -2.60708339e-01 2.98774039e-01 2.05523411e+00 -1.41174041e+00 5.88553330e-01 -4.11831111e-01 5.79310728e-02 4.30812024e-01 -2.75992521e-02 1.66193140e+00 -4.51706353e-01 -6.82398089e-01 1.35120378e+00 -1.28676216e+00 -3.57211105e-01 -1.28387430e+00 4.75335307e-01 5.35143286e-01 -1.64659065e+00 -5.83712971e-01 -6.24581688e-01 1.59096483e+00 4.06269300e-01 3.24749382e-01 -1.71722657e+00 1.89005306e+00 8.80206956e-01 -4.10394378e-01 -3.50691815e-01 -1.75018606e-01 -1.31357311e+00 2.57124427e+00 1.17429284e+00 -7.77257920e-01 -1.60303667e-01 1.06843435e+00 -1.44461711e+00 1.69800809e-02 -2.38797396e-01 3.96096987e-01 -7.89283484e-01 5.45447754e-01 2.01903194e+00 3.78210335e-01 7.11360026e-01 -6.37878406e-01 8.48091818e-01 -1.23343799e+00 -4.65457642e-01 -1.06169651e+00 8.43406239e-01 5.00406651e-01 2.05366882e-01 4.54222435e-01 1.49698792e+00 6.32159243e-01 -2.14001984e+00 -2.39700882e-01 -2.32923865e+00 -3.26416486e-01 -1.10476301e+00 5.14601198e-02 -6.57465585e-01 -1.36282363e-01 -1.30130484e+00 5.11608434e-01 -8.56851053e-01 2.20571565e+00 -2.64710416e+00 1.16834485e+00 -2.23650769e+00 1.41180315e-01 -9.99883076e-01 -4.41176142e-01 1.14019384e+00 -2.96248187e-01 -1.21385287e+00 5.49623740e-01 9.77533503e-02 9.48428613e-02 1.65150197e+00 -2.13102046e+00 7.80473856e-02 1.85188760e+00 1.02769059e+00 -4.74538265e-02 -4.08645000e-01 -5.44634771e-01 1.15042015e+00 -1.94176720e+00 -7.49700319e-01 -4.37686641e-01 -3.56298363e-01 2.48413323e-01 -1.34939784e+00 -1.76803980e+00 1.04875769e+00 -9.57085003e-01 9.99552946e-01 8.67747389e-01 -2.34856409e-01 8.34235627e-01 2.81750764e-01 1.86764949e-02 8.92249490e-01 -8.58511985e-02 1.40793107e-01 -1.01152863e-01 6.86462489e-01 1.95459906e-01 -4.33950313e-01 8.86135406e-01 7.66569843e-01 -7.05189378e-01 1.40298889e+00 5.49349660e-01 2.67798414e-01 -4.49589307e-01 -2.11133867e-02 8.64695489e-01 3.28683170e-01 -3.15638935e-02 1.58378528e+00 -4.86961837e-02 1.18722447e+00 1.73409095e-01 8.69099789e-02 1.97400061e-01 7.71112468e-01 -6.12344264e-02 2.53562215e-01 -6.02566358e-01 -4.05630124e-01 -7.74356687e-01 -8.39888969e-01 -1.26018004e-01 -3.57074837e-01 3.81219040e-01 -5.42659135e-01 2.90578390e-01 -1.42495177e+00 1.97714970e+00 -3.63137498e-02 -5.44015649e-01 -1.62129254e+00 6.75352237e-01 -1.16207908e+00 -8.70025386e-01 -9.81290913e-01 9.86777134e-01 -4.60554548e-01 1.72744722e-01 5.63999293e-01 3.79239805e-01 -2.42695189e-01 2.05297462e-01 -9.50798141e-01 -9.51976735e-03 3.14942680e-01 2.12891987e-01 7.64193629e-02 4.15252735e-01 2.06788599e+00 -2.40074206e-02 -8.96956151e-01 1.45476114e-01 6.41490292e-02 -7.40518909e-02 6.80282071e-01 1.26012347e-01 1.55825937e+00 1.30309587e+00 -1.28875528e-01 -6.60705690e-01 -4.64004969e-01 1.04877364e-01 -1.49956005e-01 1.36678467e+00 -4.40764251e-01 -9.89196542e-01 -8.30512670e-02 -4.47386385e-01 1.05299333e+00 -2.13665889e-01 5.38427099e-01 4.31873890e-01 -2.45417988e-01 1.07410415e-02 3.83693470e-01 8.22133444e-01 7.41079410e-02 -9.75428283e-01 -5.54213159e-01 2.48272427e-01 -1.09024039e+00 7.18158537e-01 -4.02909382e-01 2.01537481e-01 5.03195783e-02 6.75469994e-01 4.63141592e-01 -3.05778239e-01 4.63618789e-01 -4.93951638e-01 -3.34459411e-02 5.92026891e-01 -7.33966195e-01 3.08270667e-01 4.68350134e-01 -6.05712874e-01 8.49873078e-01 5.96275896e-01 -1.09624443e+00 3.19207112e-01 8.75122342e-01 -5.77035816e-01 6.58805130e-01 2.97720915e-01 3.98325619e-02 2.86998386e-01 1.01219043e+00 6.34579166e-01 -1.47094367e+00 -1.54311094e+00 -2.56305068e-01 -1.10492653e+00 3.76738635e-02 -1.91707124e-01 -4.91975488e-02 -1.56953520e-01 7.66975563e-02 2.75597085e-01 4.51062549e-01 -5.01497827e-01 1.28519173e-01 1.16140133e+00 5.52648386e-01 9.71938268e-01 5.77860625e-02 3.43567288e-01 -2.33123486e-01 -1.04844968e-01 -5.19008069e-01 4.00218465e-01 -7.70260919e-01 -9.51693914e-02 -1.76234738e-01 1.55729932e+00 -8.88592866e-01 -7.79383708e-02 -5.40216073e-01 1.61564794e+00 -1.51869008e+00 -1.23202851e+00 1.09251839e+00 2.22370103e-01 7.85379007e-01 3.31888308e-02 7.04826852e-02 -2.64595334e-01 2.47762320e+00 1.63763601e+00 -1.37195773e+00 -1.64181457e+00 -5.52861787e-01 -5.68973350e-01 -1.08878000e-01 -3.02809129e-02 -5.55579444e-01 4.22598892e-01 -2.30154633e+00 -6.58262628e-01 3.36265354e-01 2.04122468e-01 4.17043252e-02 -2.45897756e-01 1.42413416e-02 -1.93989750e+00 6.33961587e-01 1.34699437e+00 3.96664172e-01 1.65491126e-01 5.64557737e-01 -9.57736007e-02 1.05879220e+00 3.75195973e-02 -5.70114405e-01 2.15969598e-01 -1.97720421e-01 4.48484761e-01 -1.28482664e-01 2.82219733e-02 -1.18745381e-01 3.40290674e-02 8.13671943e-02 -1.77090401e-01 -4.22211169e-02 1.62382147e-01 -3.42842237e-01 -6.32805105e-01 -5.17998140e-01 2.90053885e-01 -6.56575984e-01 6.49516762e-01 -4.01238165e-01 -3.24584832e-01 -2.30366234e-01 2.60972135e-02 1.23972331e+00 -2.11694367e-01 -5.48279567e-01 -1.31844433e+00 7.16074915e-01 1.45075536e+00 6.32348477e-01 1.08438856e-01 9.31618739e-02 4.53936014e-01 9.54254733e-01 1.69448516e+00 -2.75132744e-01 -1.28134845e+00 3.84999590e-01 -5.54415762e-01 8.56815571e-01 2.61291466e-01 6.34995685e-01 -5.19155651e-01 -3.03729070e-01 -2.24736546e-01 7.38039337e-01 -6.63437230e-01 5.21191450e-01 -8.21949867e-01 2.33487040e-01 -4.30184675e-01 8.77052212e-01 2.55834042e-01 -6.57066036e-02 -2.72505076e-01 6.68619032e-01 2.24722662e-01 -1.67003963e-01 2.39396464e-01 -5.42080122e-01 3.94799094e-01 -8.58205510e-01 -2.19106344e-01 -1.05494943e-01 -2.86117526e-02 -2.80065148e-01 -4.77782998e-01 -1.16052767e+00 -5.72694765e-01 2.51383976e-01 3.36145541e-01 6.53487060e-02 4.87923429e-02 -2.96335090e-01 -1.22316232e+00 -5.86374063e-01 -1.34179714e-01 -1.67492987e-01 -5.73316972e-01 4.35357735e-01 -4.41104151e-01 9.73593544e-01 5.38385961e-01 1.74447256e+00 1.22222181e+00 -2.74727589e+00 -3.42177349e-01 2.52938979e-01 -3.94742015e-01 -1.79262984e-01 -2.63716016e-01 -7.20928644e-01 -8.48867777e-01 9.50927725e-01 4.68570734e-01 1.56026534e+00 7.91380476e-02 8.36002490e-01 -2.33820255e-01 5.08497399e-02 3.12073328e-01 -9.58265654e-01 8.95719965e-01 7.94174237e-01 -1.90891056e-01 -1.99311419e-01 2.94364083e-01 9.92483955e-01 -7.55574262e-01 -5.34522621e-01 3.86262516e-01 -1.76701136e-01 7.12247057e-03 1.08852804e-01 5.50364218e-01 2.24047388e+00 1.23596179e+00 -1.52222175e-01 7.95858310e-01 7.73768418e-02 5.37432596e-02 2.06761963e-01 -7.72147080e-01 -8.02027930e-01 6.37523593e-01 5.94273007e-01 1.17070050e-01 -2.53018169e-01 -3.47199228e-01 -1.73844640e-01 1.85135384e-01 -6.93906348e-01 1.57258967e-01 4.98941636e-01 -3.93358247e-02 -6.00512046e-02 -7.04842279e-02 1.70110884e-01 -2.56416139e-01 3.74267805e-01 -2.04231997e+00 9.20579449e-01 -2.35302239e-01 -3.41042979e-01 5.99333452e-01 6.61199342e-01 -9.30808841e-01 7.79832623e-01 1.03120786e-01 2.51175717e-01 -1.70289524e+00 1.02870360e+00 -9.97419959e-01 4.75362047e-01 5.52937378e-01 -2.57561309e-01 -1.09689338e+00 -2.97416497e-01 7.22844631e-01 8.61957778e-01 7.16018865e-01 5.53596094e-01 3.37611584e-01 -1.97664885e-01 1.11598125e+00 1.82057773e-01 -1.16615170e+00 -1.72397623e-02 -2.98057215e-01 -3.01960665e-02 8.78300225e-01 -1.55669511e-01 4.23454041e-01 6.71133571e-01 -1.56612077e-01 -3.59899965e-01 1.37159572e+00 1.02928621e+00 2.93666285e-02 4.74302238e-01 -3.07720450e-01 -1.73473219e+00 1.06486977e+00 -1.03783102e-01 -8.98164056e-01 -4.20936416e-01 -1.04176892e+00 3.83030125e-01 -3.27029951e-01 -1.37124296e+00 8.49560432e-01 -1.54038043e+00 -2.78527628e-02 -1.69115353e-01 8.15431091e-01 5.52964117e-01 -1.45892427e+00 6.54673367e-01 -1.11724263e+00 1.95935921e+00 -5.71243120e-01
-5.40318402e-01 -1.08753045e+00 -1.17636670e+00 -4.69704591e-02 -4.39245244e-01 -1.24524193e-01 -4.95150287e-01 -2.64142974e+00 4.69279845e-01 -1.80686861e+00 4.47251145e-01 -1.13641689e+00 1.21612984e+00 3.78076123e-01 9.62542942e-01 3.99505241e-01 -8.91933244e-01 -7.21237691e-01 5.71589190e-01 -2.13068211e+00 6.64322718e-01 2.60878598e+00 8.02104548e-01 -6.35258966e-01 -6.28317501e-01 -2.41935171e-01 2.34268655e-01 -1.05090045e+00 -7.02465551e-01 3.63612124e-01 -3.15626079e-01 6.86685147e-02 4.92290706e-01 1.96119137e-01 2.40603391e+00 -4.32846281e-01 -6.78167081e-01 1.90308187e+00 -4.45052852e-02 1.86318606e-01 7.53438190e-01 -8.12603392e-01 1.01813380e+00 9.44656290e-01 -7.67318034e-01 -1.04145936e+00 -4.01959617e-01 9.39265714e-01 6.63621835e-01 -4.72380595e-01 -4.05459917e-01 1.81420139e-01 1.36654196e+00 -1.46807534e+00 -1.51723638e+00 -1.17736069e+00 7.73979249e-02 -8.95000570e-01 -1.41924906e-02 -8.03171556e-01 8.51024932e-02 -2.12736178e+00 7.03053819e-01 1.57767531e+00 6.95493747e-01 1.35932693e+00 1.01640859e+00 -7.62146517e-01 1.39680076e+00 -8.43587759e-01 -1.22037165e+00 6.59928188e-01 2.48181564e+00 4.99426032e-01 -1.03275618e+00 -1.46401300e+00 -1.22169011e+00 1.11357572e+00 7.29990241e-01 -1.19892093e+00 1.10997052e+00 1.13035115e+00 -1.01241720e+00 -2.01479579e+00 -1.39800661e-01 -2.50064486e-01 9.28134379e-01 -1.78217984e+00 -4.03883316e-01 2.07341232e+00 7.52858663e-01 9.21889684e-02 1.35043348e+00 -1.79958878e+00 7.46985234e-01 -4.15444540e-01 7.40272083e-02 -8.73273204e-01 -4.37635733e-01 1.70611221e-01 -4.46360515e-01 -2.38368536e-01 -5.38394703e-01 1.56184348e+00 -5.98735928e-01 -2.18982623e+00 -6.83322658e-01 1.06887555e+00 4.62913278e-01 8.06728421e-01 1.77306888e+00 -1.30316889e-01 -3.13576395e-01 1.02348786e+00 -1.95624251e+00 1.86762429e+00 1.38936513e+00 4.84274520e-01 -8.33980574e-01 4.74488386e-01 9.86436205e-01 -1.19551679e-01 -1.71371547e+00 9.85113115e-01 -6.84304305e-02 -8.94596907e-01 1.18196605e+00 1.16382023e+00 2.70533040e-01 -1.60574147e-01 6.81809821e-01 -5.45143849e-01 5.87364452e-01 -7.24210915e-01 9.16666230e-01 -1.20354069e+00 -2.63314924e-01 -3.72721543e-01 1.55158992e+00 6.93542794e-01 1.00054796e+00 9.57665044e-01 -3.64021444e-01 6.89236710e-01 -1.00998597e+00 -8.97490427e-01 -1.70575431e+00 6.24699444e-01 8.09576689e-01 1.18486985e+00 -7.16451325e-01 3.61430286e-01 -1.08834240e+00 1.19183034e+00 -1.77788199e-01 -1.48565449e+00 1.45240601e-01 1.05531452e-01 -7.57171946e-01 -7.77776768e-01 1.14452410e+00 -1.10643320e-01 -1.58569818e+00 1.96225273e+00 -2.18484806e+00 8.43212892e-01 1.39946185e-01 -1.28213572e+00 2.91251505e-01 8.14917899e-01 3.29545519e-01 4.16259579e-01 4.37517976e-01 -5.49068896e-01 -2.90226149e-02 1.71474083e-01 -9.56621691e-01 -1.45818585e+00 -2.69040257e-01 -9.11166126e-01 -2.41088867e+00 -5.54109287e-01 -1.92491619e+00 4.27127119e-02 4.52241143e-01 4.13702874e-01 1.35218029e+00 -1.24970125e+00 2.29290279e+00 -2.13824269e-01 -1.72612979e+00 -2.52436071e-02 -4.18961809e-01 -5.80559256e-01 7.39602054e-01 -6.80471304e-01 5.60607493e-01 -3.28034224e-01 1.57127789e+00 -4.79997232e-01 -1.17157467e+00 -1.48815463e-02 2.70578805e-01 5.10763569e-01 -1.93697621e+00 -5.01372871e-01 5.60855348e-02 -6.86854840e-01 1.35918809e-02 3.38287784e-01 -5.64552594e-01 -1.39377457e-01 4.42606190e-01 5.65177373e-01 3.99807603e-01 -8.99999309e-02 1.67745983e-01 -4.14051002e-01 -7.37758059e-01 -9.70025881e-03 -5.76266541e-01 1.28260006e-01 4.33062254e-01 3.56663974e-01 -4.69575007e-01 8.38726831e-01 4.04691671e-04 -8.58296527e-01 1.15596602e+00 9.11198007e-01 5.38806079e-01 -3.90685328e-01 1.60393142e-01 -2.20376983e-01 -1.02621940e+00 7.50624374e-01 -9.79276711e-02 -5.66936007e-01 -5.96395710e-01 7.72085374e-01 -2.76442978e-01 -3.11257774e-02 4.01006766e-01 4.03433887e-01 2.03977458e-01 -1.87773850e-01 7.92858861e-01 4.24291192e-01 -2.33386767e-01 -4.61664751e-01 1.90046191e-01 -4.95520011e-01 4.81010761e-01 -1.73252772e-01 -2.21790062e-01 -5.37115836e-01 3.40892826e-01 3.36301350e-01 8.05881499e-02 2.63958728e-01 7.47751423e-01 1.48833101e+00 1.08064040e+00 -2.84211824e-01 6.76840906e-01 -3.08663531e-01 -2.21820401e-01 1.19047228e-01 1.19909576e-01 -3.18946916e-01 4.53629538e-01 2.56715930e-01 -3.95977173e-01 -3.14958621e-01 2.59714865e-01 4.15444025e-01 -1.11139234e+00 -3.78207764e-01 -5.85717917e-02 -2.78015465e-01 1.92192034e-01 2.29147017e-02 3.98793560e-01 8.41853292e-01 -1.42555187e+00 8.06503706e-03 -1.05087680e+00 -3.08151367e-01 7.16983543e-01 4.79560659e-01 -1.06371997e+00 -1.96190614e-01 3.63446031e-02 4.24377067e-01 -3.41241982e-02 7.15061386e-01 -5.98619200e-01 -3.63042882e-01 -1.60646241e+00 1.32306409e+00 -5.64052258e-01 -1.11314892e-01 -3.12237879e-01 -1.80350560e-01 1.82399216e-01 8.43382585e-01 5.14434076e-01 -1.49758544e-01 5.23507500e-01 -1.51036897e-02 -1.13125977e-01 6.29550088e-02 -2.61444189e-01 9.53144016e-02 1.22070332e-01 -7.13720813e-01 8.02003761e-01 -1.22022612e+00 -3.09608669e-01 1.77740839e+00 -1.30780202e-01 5.56222219e-01 -3.44405468e-01 -7.38217258e-01 6.68486877e-06 -1.41952160e-01 9.07722904e-02 -3.52135233e-01 -1.02942300e+00 1.46822344e-01 -1.02591807e+00 -6.39615957e-01 -1.15613057e+00 3.49239142e-01 3.28764417e-01 8.85179470e-03 2.26813998e-01 -1.10118403e+00 3.77746508e-02 -2.32274764e+00 -6.58754222e-01 6.45384999e-01 1.02331611e+00 7.32289836e-01 -8.44670193e-01 2.48328477e-01 4.40500970e-01 -4.11389910e-01 6.67598818e-01 4.40032001e-01 2.42596047e+00 2.05508087e+00 -1.31747605e+00 -2.01278262e+00 -3.58857125e-01 -3.66605403e-01 8.00667302e-02 -3.34675384e-01 1.82288247e+00 -9.06051173e-01 1.97404843e+00 1.03343752e+00 -7.38007456e-01 6.91066307e-02 -2.50753541e-01 4.63505661e-01 5.13056479e-01 -8.47209415e-02 8.41678972e-01 -2.51217368e-02 1.84259666e-01 2.68795488e-01 4.70982944e-01 -1.91025267e-01 3.52556379e-01 7.18722123e-01 -1.24171849e+00 1.17658318e-01 -5.75787802e-01 3.10348118e-01 -1.44619474e+00 4.18343716e-01 2.10283860e-01 3.12829233e-01 3.79421839e-01 4.05239830e-01 2.40095804e-01 -1.11620288e+00 1.44030331e+00 7.92306073e-02 -5.18081444e-01 2.81743050e-01 2.55192808e-01 4.94924030e-01 1.71625264e-01 -9.85406221e-01 -1.82649127e-01 1.27368862e-01 -7.44148793e-01 -6.04281798e-01 4.35904866e-03 1.03932997e+00 1.01298696e+00 2.30067986e-01 4.30191874e-01 1.97290275e+00 7.11945209e-01 1.54481969e+00 -8.23381972e-01 6.19289328e-01 -6.98485483e-01 -4.78636604e-03 -7.01911221e-04 1.24475856e-01 1.94344562e-02 5.87276006e-01 9.38856909e-01 -6.94799549e-02 -4.29530587e-01 1.04759350e+00 2.19578862e+00 -2.05427046e-01 5.24900010e-01 4.43244338e-01 1.53997265e-01 2.81513194e-01 -9.52335661e-01 -4.43515332e-02 6.24101920e-01 8.16803032e-01 -8.86163174e-01 -5.95585812e-01 4.64441028e-01 8.95841321e-01 9.71126313e-02 -6.59040643e-02 5.02328293e-01 5.58459079e-02 -4.82741628e-01 1.01199143e+00 3.03481215e-01 1.56085207e+00 7.32375711e-01 -1.35327455e-01 6.03318663e-01 -2.16052388e-01 -1.33723601e-01 -1.25333062e-01 -6.57637849e-01 -7.81440076e-01 2.11723164e-01 -5.86247565e-02 4.22575752e-01 -1.04849596e-02 1.27161116e-01 6.47532899e-01 -6.37869150e-01 2.29184555e-01 -9.10758349e-01 -5.86801895e-01 4.09266692e-01 6.83517548e-01 -8.77849254e-01 1.01481759e+00 1.32942448e+00 7.90876540e-02 1.37014613e-01 9.78322317e-01 -1.45846045e+00 -7.35880639e-01 -1.16036364e+00 -2.40474784e-01 -8.16673449e-01 1.09867361e-01 -1.60596259e-02 -2.94807341e-01 9.91890544e-01 -6.23682830e-02 1.86514318e+00 -5.23937389e-01 -7.12503653e-01 -2.36135687e+00 9.41511316e-01 -2.10694722e-01 -1.70971227e+00 -9.32653865e-01 -1.29437006e+00 8.53877829e-01 -6.00448797e-01 -5.31640414e-01 -7.93605509e-01 -8.82154824e-01 -3.55501321e-02 6.86487172e-01 7.69637683e-01 -2.73870332e-01 -3.27301459e-02 -3.56012971e-01 3.06228696e-02 4.38141726e-01 2.69374500e-02 -5.25940792e-01 6.81779482e-02 -1.63595708e-01 1.06745527e-01 -3.07195945e-01 -1.16784657e-02 1.67765575e+00 2.81502395e-01 7.93128312e-01 -6.32931089e-01 -9.65118673e-01 1.40152388e-01 -8.26805139e-02 -1.16343456e-01 2.05970577e-01 1.28578514e+00 -8.47811053e-01 1.73774706e-01 4.99359697e-03 -9.07749643e-01 1.78319543e+00 -5.28844597e-01 -2.80867333e-01 5.44184313e-02 -1.72838002e+00 1.13709464e+00 -1.92767087e+00 1.57006999e-01 1.52635969e+00 -3.96258966e-01 9.49902369e-01 1.15118840e+00 5.05797740e-01 -8.10011206e-01 -1.00321368e+00 -2.34150384e-01 4.47394099e-01 2.15787564e-01 2.96051755e-01 -4.45153639e-01 -7.56250977e-01 -1.76056766e+00 -5.24647527e-01 -1.32447819e-02 9.66220134e-01 -1.18199073e+00 2.61701814e-01 2.34180723e-01 3.06312514e-01 9.40337350e-01 7.15928877e-01 -1.26685154e+00 -6.44792617e-01 -5.62362529e-01 1.47722744e-01 1.00101745e+00 -5.82712812e-01 1.82488176e-01 7.44682040e-01 2.89279469e-01 1.77868417e-01 -7.20750210e-01 5.48978393e-01 1.01892775e+00 -1.63139234e+00 1.64438876e+00 -9.34827476e-02 1.07612503e-01 -9.75764584e-02 5.81574841e-01 -2.03476195e+00 -3.37888749e-01 1.25631361e+00 -9.66326063e-01 -1.21378191e-01