1.27750000e+01 0.00000000e+00 0.00000000e+00 0.00000000e+00 1.27750000e+01 0.00000000e+00 0.00000000e+00 0.00000000e+00 1.27750000e+01
1.28250000e+01 0.00000000e+00 0.00000000e+00 0.00000000e+00 1.28250000e+01 0.00000000e+00 0.00000000e+00 0.00000000e+00 1.28250000e+01
1.29010000e+01 0.00000000e+00 0.00000000e+00 0.00000000e+00 1.29010000e+01 0.00000000e+00 0.00000000e+00 0.00000000e+00 1.29010000e+01
1.29060000e+01 0.00000000e+00 0.00000000e+00 0.00000000e+00 1.29060000e+01 0.00000000e+00 0.00000000e+00 0.00000000e+00 1.29060000e+01
1.31020000e+01 0.00000000e+00 0.00000000e+00 0.00000000e+00 1.31020000e+01 0.00000000e+00 0.00000000e+00 0.00000000e+00 1.31020000e+01
1.32070000e+01 0.00000000e+00 0.00000000e+00 0.00000000e+00 1.32070000e+01 0.00000000e+00 0.00000000e+00 0.00000000e+00 1.32070000e+01
1.27700000e+01 0.00000000e+00 0.00000000e+00 0.00000000e+00 1.27700000e+01 0.00000000e+00 0.00000000e+00 0.00000000e+00 1.27700000e+01
1.27770000e+01 0.00000000e+00 0.00000000e+00 0.00000000e+00 1.27770000e+01 0.00000000e+00 0.00000000e+00 0.00000000e+00 1.27770000e+01
1.26430000e+01 0.00000000e+00 0.00000000e+00 0.00000000e+00 1.26430000e+01 0.00000000e+00 0.00000000e+00 0.00000000e+00 1.26430000e+01
1.26240000e+01 0.00000000e+00 0.00000000e+00 0.00000000e+00 1.26240000e+01 0.00000000e+00 0.00000000e+00 0.00000000e+00 1.26240000e+01
1.25640000e+01 0.00000000e+00 0.00000000e+00 0.00000000e+00 1.25640000e+01 0.00000000e+00 0.00000000e+00 0.00000000e+00 1.25640000e+01
1.24970000e+01 0.00000000e+00 0.00000000e+00 0.00000000e+00 1.24970000e+01 0.00000000e+00 0.00000000e+00 0.00000000e+00 1.24970000e+01
1.26560000e+01 0.00000000e+00 0.00000000e+00 0.00000000e+00 1.26560000e+01 0.00000000e+00 0.00000000e+00 0.00000000e+00 1.26560000e+01
1.28080000e+01 0.00000000e+00 0.00000000e+00 0.00000000e+00 1.28080000e+01 0.00000000e+00 0.00000000e+00 0.00000000e+00 1.28080000e+01
1.27880000e+01 0.00000000e+00 0.00000000e+00 0.00000000e+00 1.27880000e+01 0.00000000e+00 0.00000000e+00 0.00000000e+00 1.27880000e+01
1.25170000e+01 0.00000000e+00 0.00000000e+00 0.00000000e+00 1.25170000e+01 0.00000000e+00 0.00000000e+00 0.00000000e+00 1.25170000e+01
1.27090000e+01 0.00000000e+00 0.00000000e+00 0.00000000e+00 1.27090000e+01 0.00000000e+00 0.00000000e+00 0.00000000e+00 1.27090000e+01
1.26400000e+01 0.00000000e+00 0.00000000e+00 0.00000000e+00 1.26400000e+01 0.00000000e+00 0.00000000e+00 0.00000000e+00 1.26400000e+01
1.26670000e+01 0.00000000e+00 0.00000000e+00 0.00000000e+00 1.26670000e+01 0.00000000e+00 0.00000000e+00 0.00000000e+00 1.26670000e+01
1.25740000e+01 0.00000000e+00 0.00000000e+00 0.00000000e+00 1.25740000e+01 0.00000000e+00 0.00000000e+00 0.00000000e+00 1.25740000e+01
1.26310000e+01 0.00000000e+00 0.00000000e+00 0.00000000e+00 1.26310000e+01 0.00000000e+00 0.00000000e+00 0.00000000e+00 1.26310000e+01
1.27270000e+01 0.00000000e+00 0.00000000e+00 0.00000000e+00 1.27270000e+01 0.00000000e+00 0.00000000e+00 0.00000000e+00 1.27270000e+01
1.27270000e+01 0.00000000e+00 0.00000000e+00 0.00000000e+00 1.27270000e+01 0.00000000e+00 0.00000000e+00 0.00000000e+00 1.27270000e+01
1.26950000e+01 0.00000000e+00 0.00000000e+00 0.00000000e+00 1.26950000e+01 0.00000000e+00 0.00000000e+00 0.00000000e+00 1.26950000e+01
1.25740000e+01 0.00000000e+00 0.00000000e+00 0.00000000e+00 1.25740000e+01 0.00000000e+00 0.00000000e+00 0.00000000e+00 1.25740000e+01
1.26510000e+01 0.00000000e+00 0.00000000e+00 0.00000000e+00 1.26510000e+01 0.00000000e+00 0.00000000e+00 0.00000000e+00 1.26510000e+01
1.25720000e+01 0.00000000e+00 0.00000000e+00 0.00000000e+00 1.25720000e+01 0.00000000e+00 0.00000000e+00 0.00000000e+00 1.25720000e+01
1.25490000e+01 0.00000000e+00 0.00000000e+00 0.00000000e+00 1.25490000e+01 0.00000000e+00 0.00000000e+00 0.00000000e+00 1.25490000e+01
1.26160000e+01 0.00000000e+00 0.00000000e+00 0.00000000e+00 1.26160000e+01 0.00000000e+00 0.00000000e+00 0.00000000e+00 1.26160000e+01
1.27240000e+01 0.00000000e+00 0.00000000e+00 0.00000000e+00 1.27240000e+01 0.00000000e+00 0.00000000e+00 0.00000000e+00 1.27240000e+01
1.27350000e+01 0.00000000e+00 0.00000000e+00 0.00000000e+00 1.27350000e+01 0.00000000e+00 0.00000000e+00 0.00000000e+00 1.27350000e+01
1.27000000e+01 0.00000000e+00 0.00000000e+00 0.00000000e+00 1.27000000e+01 0.00000000e+00 0.00000000e+00 0.00000000e+00 1.27000000e+01
1.26380000e+01 0.00000000e+00 0.00000000e+00 0.00000000e+00 1.26380000e+01 0.00000000e+00 0.00000000e+00 0.00000000e+00 1.26380000e+01
1.27770000e+01 0.00000000e+00 0.00000000e+00 0.00000000e+00 1.27770000e+01 0.00000000e+00 0.00000000e+00 0.00000000e+00 1.27770000e+01
1.26910000e+01 0.00000000e+00 0.00000000e+00 0.00000000e+00 1.26910000e+01 0.00000000e+00 0.00000000e+00 0.00000000e+00 1.26910000e+01
1.27860000e+01 0.00000000e+00 0.00000000e+00 0.00000000e+00 1.27860000e+01 0.00000000e+00 0.00000000e+00 0.00000000e+00 1.27860000e+01
1.26160000e+01 0.00000000e+00 0.00000000e+00 0.00000000e+00 1.26160000e+01 0.00000000e+00 0.00000000e+00 0.00000000e+00 1.26160000e+01
1.27750000e+01 0.00000000e+00 0.00000000e+00 0.00000000e+00 1.27750000e+01 0.00000000e+00 0.00000000e+00 0.00000000e+00 1.27750000e+01
1.25390000e+01 0.00000000e+00 0.00000000e+00 0.00000000e+00 1.25390000e+01 0.00000000e+00 0.00000000e+00 0.00000000e+00 1.25390000e+01
1.26030000e+01 0.00000000e+00 0.00000000e+00 0.00000000e+00 1.26030000e+01 0.00000000e+00 0.00000000e+00 0.00000000e+00 1.26030000e+01
1.27350000e+01 0.00000000e+00 0.00000000e+00 0.00000000e+00 1.27350000e+01 0.00000000e+00 0.00000000e+00 0.00000000e+00 1.27350000e+01
1.26640000e+01 0.00000000e+00 0.00000000e+00 0.00000000e+00 1.26640000e+01 0.00000000e+00 0.00000000e+00 0.00000000e+00 1.26640000e+01
1.25740000e+01 0.00000000e+00 0.00000000e+00 0.00000000e+00 1.25740000e+01 0.00000000e+00 0.00000000e+00 0.00000000e+00 1.25740000e+01
1.26890000e+01 0.00000000e+00 0.00000000e+00 0.00000000e+00 1.26890000e+01 0.00000000e+00 0.00000000e+00 0.00000000e+00 1.26890000e+01
1.27600000e+01 0.00000000e+00 0.00000000e+00 0.00000000e+00 1.27600000e+01 0.00000000e+00 0.00000000e+00 0.00000000e+00 1.27600000e+01
1.25390000e+01 0.00000000e+00 0.00000000e+00 0.00000000e+00 1.25390000e+01 0.00000000e+00 0.00000000e+00 0.00000000e+00 1.25390000e+01
1.27770000e+01 0.00000000e+00 0.00000000e+00 0.00000000e+00 1.27770000e+01 0.00000000e+00 0.00000000e+00 0.00000000e+00 1.27770000e+01
1.25870000e+01 0.00000000e+00 0.00000000e+00 0.00000000e+00 1.25870000e+01 0.00000000e+00 0.00000000e+00 0.00000000e+00 1.25870000e+01
1.25740000e+01 0.00000000e+00 0.00000000e+00 0.00000000e+00 1.25740000e+01 0.00000000e+00 0.00000000e+00 0.00000000e+00 1.25740000e+01
1.27210000e+01 0.00000000e+00 0.00000000e+00 0.00000000e+00 1.27210000e+01 0.00000000e+00 0.00000000e+00 0.00000000e+00 1.27210000e+01
1.26960000e+01 0.00000000e+00 0.00000000e+00 0.00000000e+00 1.26960000e+01 0.00000000e+00 0.00000000e+00 0.00000000e+00 1.26960000e+01
1.28200000e+01 0.00000000e+00 0.00000000e+00 0.00000000e+00 1.28200000e+01 0.00000000e+00 0.00000000e+00 0.00000000e+00 1.28200000e+01
1.27410000e+01 0.00000000e+00 0.00000000e+00 0.00000000e+00 1.27410000e+01 0.00000000e+00 0.00000000e+00 0.00000000e+00 1.27410000e+01
1.25020000e+01 0.00000000e+00 0.00000000e+00 0.00000000e+00 1.25020000e+01 0.00000000e+00 0.00000000e+00 0.00000000e+00 1.25020000e+01
1.26130000e+01 0.00000000e+00 0.00000000e+00 0.00000000e+00 1.26130000e+01 0.00000000e+00 0.00000000e+00 0.00000000e+00 1.26130000e+01
1.27460000e+01 0.00000000e+00 0.00000000e+00 0.00000000e+00 1.27460000e+01 0.00000000e+00 0.00000000e+00 0.00000000e+00 1.27460000e+01
1.28930000e+01 0.00000000e+00 0.00000000e+00 0.00000000e+00 1.28930000e+01 0.00000000e+00 0.00000000e+00 0.00000000e+00 1.28930000e+01
1.26670000e+01 0.00000000e+00 0.00000000e+00 0.00000000e+00 1.26670000e+01 0.00000000e+00 0.00000000e+00 0.00000000e+00 1.26670000e+01
1.27710000e+01 0.00000000e+00 0.00000000e+00 0.00000000e+00 1.27710000e+01 0.00000000e+00 0.00000000e+00 0.00000000e+00 1.27710000e+01
1.28930000e+01 0.00000000e+00 0.00000000e+00 0.00000000e+00 1.28930000e+01 0.00000000e+00 0.00000000e+00 0.00000000e+00 1.28930000e+01
1.25280000e+01 0.00000000e+00 0.00000000e+00 0.00000000e+00 1.25280000e+01 0.00000000e+00 0.00000000e+00 0.00000000e+00 1.25280000e+01
1.25720000e+01 0.00000000e+00 0.00000000e+00 0.00000000e+00 1.25720000e+01 0.00000000e+00 0.00000000e+00 0.00000000e+00 1.25720000e+01
1.27220000e+01 0.00000000e+00 0.00000000e+00 0.00000000e+00 1.27220000e+01 0.00000000e+00 0.00000000e+00 0.00000000e+00 1.27220000e+01
1.26630000e+01 0.00000000e+00 0.00000000e+00 0.00000000e+00 1.26630000e+01 0.00000000e+00 0.00000000e+00 0.00000000e+00 1.26630000e+01
1.27290000e+01 0.00000000e+00 0.00000000e+00 0.00000000e+00 1.27290000e+01 0.00000000e+00 0.00000000e+00 0.00000000e+00 1.27290000e+01
1.25700000e+01 0.00000000e+00 0.00000000e+00 0.00000000e+00 1.25700000e+01 0.00000000e+00 0.00000000e+00 0.00000000e+00 1.25700000e+01
1.25300000e+01 0.00000000e+00 0.00000000e+00 0.00000000e+00 1.25300000e+01 0.00000000e+00 0.00000000e+00 0.00000000e+00 1.25300000e+01
1.26380000e+01 0.00000000e+00 0.00000000e+00 0.00000000e+00 1.26380000e+01 0.00000000e+00 0.00000000e+00 0.00000000e+00 1.26380000e+01
1.26680000e+01 0.00000000e+00 0.00000000e+00 0.00000000e+00 1.26680000e+01 0.00000000e+00 0.00000000e+00 0.00000000e+00 1.26680000e+01
1.28730000e+01 0.00000000e+00 0.00000000e+00 0.00000000e+00 1.28730000e+01 0.00000000e+00 0.00000000e+00 0.00000000e+00 1.28730000e+01
1.29180000e+01 0.00000000e+00 0.00000000e+00 0.00000000e+00 1.29180000e+01 0.00000000e+00 0.00000000e+00 0.00000000e+00 1.29180000e+01
1.29860000e+01 0.00000000e+00 0.00000000e+00 0.00000000e+00 1.29860000e+01 0.00000000e+00 0.00000000e+00 0.00000000e+00 1.29860000e+01
1.27800000e+01 0.00000000e+00 0.00000000e+00 0.00000000e+00 1.27800000e+01 0.00000000e+00 0.00000000e+00 0.00000000e+00 1.27800000e+01
1.29680000e+01 0.00000000e+00 0.00000000e+00 0.00000000e+00 1.29680000e+01 0.00000000e+00 0.00000000e+00 0.00000000e+00 1.29680000e+01
1.28490000e+01 0.00000000e+00 0.00000000e+00 0.00000000e+00 1.28490000e+01 0.00000000e+00 0.00000000e+00 0.00000000e+00 1.28490000e+01
1.28800000e+01 0.00000000e+00 0.00000000e+00 0.00000000e+00 1.28800000e+01 0.00000000e+00 0.00000000e+00 0.00000000e+00 1.28800000e+01
1.26790000e+01 0.00000000e+00 0.00000000e+00 0.00000000e+00 1.26790000e+01 0.00000000e+00 0.00000000e+00 0.00000000e+00 1.26790000e+01
1.26330000e+01 0.00000000e+00 0.00000000e+00 0.00000000e+00 1.26330000e+01 0.00000000e+00 0.00000000e+00 0.00000000e+00 1.26330000e+01
1.27140000e+01 0.00000000e+00 0.00000000e+00 0.00000000e+00 1.27140000e+01 0.00000000e+00 0.00000000e+00 0.00000000e+00 1.27140000e+01
1.25940000e+01 0.00000000e+00 0.00000000e+00 0.00000000e+00 1.25940000e+01 0.00000000e+00 0.00000000e+00 0.00000000e+00 1.25940000e+01
1.27550000e+01 0.00000000e+00 0.00000000e+00 0.00000000e+00 1.27550000e+01 0.00000000e+00 0.00000000e+00 0.00000000e+00 1.27550000e+01
1.28620000e+01 0.00000000e+00 0.00000000e+00 0.00000000e+00 1.28620000e+01 0.00000000e+00 0.00000000e+00 0.00000000e+00 1.28620000e+01
1.27500000e+01 0.00000000e+00 0.00000000e+00 0.00000000e+00 1.27500000e+01 0.00000000e+00 0.00000000e+00 0.00000000e+00 1.27500000e+01
1.27420000e+01 0.00000000e+00 0.00000000e+00 0.00000000e+00 1.27420000e+01 0.00000000e+00 0.00000000e+00 0.00000000e+00 1.27420000e+01
1.27730000e+01 0.00000000e+00 0.00000000e+00 0.00000000e+00 1.27730000e+01 0.00000000e+00 0.00000000e+00 0.00000000e+00 1.27730000e+01
1.28060000e+01 0.00000000e+00 0.00000000e+00 0.00000000e+00 1.28060000e+01 0.00000000e+00 0.00000000e+00 0.00000000e+00 1.28060000e+01
1.28320000e+01 0.00000000e+00 0.00000000e+00 0.00000000e+00 1.28320000e+01 0.00000000e+00 0.00000000e+00 0.00000000e+00 1.28320000e+01
1.27500000e+01 0.00000000e+00 0.00000000e+00 0.00000000e+00 1.27500000e+01 0.00000000e+00 0.00000000e+00 0.00000000e+00 1.27500000e+01
1.25850000e+01 0.00000000e+00 0.00000000e+00 0.00000000e+00 1.25850000e+01 0.00000000e+00 0.00000000e+00 0.00000000e+00 1.25850000e+01
1.26820000e+01 0.00000000e+00 0.00000000e+00 0.00000000e+00 1.26820000e+01 0.00000000e+00 0.00000000e+00 0.00000000e+00 1.26820000e+01
1.24850000e+01 0.00000000e+00 0.00000000e+00 0.00000000e+00 1.24850000e+01 0.00000000e+00 0.00000000e+00 0.00000000e+00 1.24850000e+01
1.28830000e+01 0.00000000e+00 0.00000000e+00 0.00000000e+00 1.28830000e+01 0.00000000e+00 0.00000000e+00 0.00000000e+00 1.28830000e+01
1.27720000e+01 0.00000000e+00 0.00000000e+00 0.00000000e+00 1.27720000e+01 0.00000000e+00 0.00000000e+00 0.00000000e+00 1.27720000e+01
1.26740000e+01 0.00000000e+00 0.00000000e+00 0.00000000e+00 1.26740000e+01 0.00000000e+00 0.00000000e+00 0.00000000e+00 1.26740000e+01
1.28250000e+01 0.00000000e+00 0.00000000e+00 0.00000000e+00 1.28250000e+01 0.00000000e+00 0.00000000e+00 0.00000000e+00 1.28250000e+01
1.27740000e+01 0.00000000e+00 0.00000000e+00 0.00000000e+00 1.27740000e+01 0.00000000e+00 0.00000000e+00 0.00000000e+00 1.27740000e+01
1.29200000e+01 0.00000000e+00 0.00000000e+00 0.00000000e+00 1.29200000e+01 0.00000000e+00 0.00000000e+00 0.00000000e+00 1.29200000e+01
1.26230000e+01 0.00000000e+00 0.00000000e+00 0.00000000e+00 1.26230000e+01 0.00000000e+00 0.00000000e+00 0.00000000e+00 1.26230000e+01
1.28860000e+01 0.00000000e+00 0.00000000e+00 0.00000000e+00 1.28860000e+01 0.00000000e+00 0.00000000e+00 0.00000000e+00 1.28860000e+01
1.24850000e+01 0.00000000e+00 0.00000000e+00 0.00000000e+00 1.24850000e+01 0.00000000e+00 0.00000000e+00 0.00000000e+00 1.24850000e+01
1.27470000e+01 0.00000000e+00 0.00000000e+00 0.00000000e+00 1.27470000e+01 0.00000000e+00 0.00000000e+00 0.00000000e+00 1.27470000e+01
1.24850000e+01 0.00000000e+00 0.00000000e+00 0.00000000e+00 1.24850000e+01 0.00000000e+00 0.00000000e+00 0.00000000e+00 1.24850000e+01
1.26550000e+01 0.00000000e+00 0.00000000e+00 0.00000000e+00 1.26550000e+01 0.00000000e+00 0.00000000e+00 0.00000000e+00 1.26550000e+01
1.30000000e+01 0.00000000e+00 0.00000000e+00 0.00000000e+00 1.30000000e+01 0.00000000e+00 0.00000000e+00 0.00000000e+00 1.30000000e+01
1.27720000e+01 0.00000000e+00 0.00000000e+00 0.00000000e+00 1.27720000e+01 0.00000000e+00 0.00000000e+00 0.00000000e+00 1.27720000e+01
1.26490000e+01 0.00000000e+00 0.00000000e+00 0.00000000e+00 1.26490000e+01 0.00000000e+00 0.00000000e+00 0.00000000e+00 1.26490000e+01
1.27650000e+01 0.00000000e+00 0.00000000e+00 0.00000000e+00 1.27650000e+01 0.00000000e+00 0.00000000e+00 0.00000000e+00 1.27650000e+01
1.28030000e+01 0.00000000e+00 0.00000000e+00 0.00000000e+00 1.28030000e+01 0.00000000e+00 0.00000000e+00 0.00000000e+00 1.28030000e+01
1.24230000e+01 0.00000000e+00 0.00000000e+00 0.00000000e+00 1.24230000e+01 0.00000000e+00 0.00000000e+00 0.00000000e+00 1.24230000e+01
1.28830000e+01 0.00000000e+00 0.00000000e+00 0.00000000e+00 1.28830000e+01 0.00000000e+00 0.00000000e+00 0.00000000e+00 1.28830000e+01
1.27870000e+01 0.00000000e+00 0.00000000e+00 0.00000000e+00 1.27870000e+01 0.00000000e+00 0.00000000e+00 0.00000000e+00 1.27870000e+01
1.27800000e+01 0.00000000e+00 0.00000000e+00 0.00000000e+00 1.27800000e+01 0.00000000e+00 0.00000000e+00 0.00000000e+00 1.27800000e+01
1.27210000e+01 0.00000000e+00 0.00000000e+00 0.00000000e+00 1.27210000e+01 0.00000000e+00 0.00000000e+00 0.00000000e+00 1.27210000e+01
1.27570000e+01 0.00000000e+00 0.00000000e+00 0.00000000e+00 1.27570000e+01 0.00000000e+00 0.00000000e+00 0.00000000e+00 1.27570000e+01
1.30020000e+01 0.00000000e+00 0.00000000e+00 0.00000000e+00 1.30020000e+01 0.00000000e+00 0.00000000e+00 0.00000000e+00 1.30020000e+01
1.28720000e+01 0.00000000e+00 0.00000000e+00 0.00000000e+00 1.28720000e+01 0.00000000e+00 0.00000000e+00 0.00000000e+00 1.28720000e+01
1.28030000e+01 0.00000000e+00 0.00000000e+00 0.00000000e+00 1.28030000e+01 0.00000000e+00 0.00000000e+00 0.00000000e+00 1.28030000e+01
1.25360000e+01 0.00000000e+00 0.00000000e+00 0.00000000e+00 1.25360000e+01 0.00000000e+00 0.00000000e+00 0.00000000e+00 1.25360000e+01
1.30020000e+01 0.00000000e+00 0.00000000e+00 0.00000000e+00 1.30020000e+01 0.00000000e+00 0.00000000e+00 0.00000000e+00 1.30020000e+01
1.28070000e+01 0.00000000e+00 0.00000000e+00 0.00000000e+00 1.28070000e+01 0.00000000e+00 0.00000000e+00 0.00000000e+00 1.28070000e+01
1.30620000e+01 0.00000000e+00 0.00000000e+00 0.00000000e+00 1.30620000e+01 0.00000000e+00 0.00000000e+00 0.00000000e+00 1.30620000e+01
1.27970000e+01 0.00000000e+00 0.00000000e+00 0.00000000e+00 1.27970000e+01 0.00000000e+00 0.00000000e+00 0.00000000e+00 1.27970000e+01
1.27930000e+01 0.00000000e+00 0.00000000e+00 0.00000000e+00 1.27930000e+01 0.00000000e+00 0.00000000e+00 0.00000000e+00 1.27930000e+01
1.28000000e+01 0.00000000e+00 0.00000000e+00 0.00000000e+00 1.28000000e+01 0.00000000e+00 0.00000000e+00 0.00000000e+00 1.28000000e+01
1.27340000e+01 0.00000000e+00 0.00000000e+00 0.00000000e+00 1.27340000e+01 0.00000000e+00 0.00000000e+00 0.00000000e+00 1.27340000e+01
1.28180000e+01 0.00000000e+00 0.00000000e+00 0.00000000e+00 1.28180000e+01 0.00000000e+00 0.00000000e+00 0.00000000e+00 1.28180000e+01
1.28530000e+01 0.00000000e+00 0.00000000e+00 0.00000000e+00 1.28530000e+01 0.00000000e+00 0.00000000e+00 0.00000000e+00 1.28530000e+01
1.28520000e+01 0.00000000e+00 0.00000000e+00 0.00000000e+00 1.28520000e+01 0.00000000e+00 0.00000000e+00 0.00000000e+00 1.28520000e+01
1.30010000e+01 0.00000000e+00 0.00000000e+00 0.00000000e+00 1.30010000e+01 0.00000000e+00 0.00000000e+00 0.00000000e+00 1.30010000e+01
1.29050000e+01 0.00000000e+00 0.00000000e+00 0.00000000e+00 1.29050000e+01 0.00000000e+00 0.00000000e+00 0.00000000e+00 1.29050000e+01
1.27810000e+01 0.00000000e+00 0.00000000e+00 0.00000000e+00 1.27810000e+01 0.00000000e+00 0.00000000e+00 0.00000000e+00 1.27810000e+01
1.25610000e+01 0.00000000e+00 0.00000000e+00 0.00000000e+00 1.25610000e+01 0.00000000e+00 0.00000000e+00 0.00000000e+00 1.25610000e+01
1.26330000e+01 0.00000000e+00 0.00000000e+00 0.00000000e+00 1.26330000e+01 0.00000000e+00 0.00000000e+00 0.00000000e+00 1.26330000e+01
1.27870000e+01 0.00000000e+00 0.00000000e+00 0.00000000e+00 1.27870000e+01 0.00000000e+00 0.00000000e+00 0.00000000e+00 1.27870000e+01
1.29670000e+01 0.00000000e+00 0.00000000e+00 0.00000000e+00 1.29670000e+01 0.00000000e+00 0.00000000e+00 0.00000000e+00 1.29670000e+01
1.27110000e+01 0.00000000e+00 0.00000000e+00 0.00000000e+00 1.27110000e+01 0.00000000e+00 0.00000000e+00 0.00000000e+00 1.27110000e+01
1.27810000e+01 0.00000000e+00 0.00000000e+00 0.00000000e+00 1.27810000e+01 0.00000000e+00 0.00000000e+00 0.00000000e+00 1.27810000e+01
1.28530000e+01 0.00000000e+00 0.00000000e+00 0.00000000e+00 1.28530000e+01 0.00000000e+00 0.00000000e+00 0.00000000e+00 1.28530000e+01
1.28590000e+01 0.00000000e+00 0.00000000e+00 0.00000000e+00 1.28590000e+01 0.00000000e+00 0.00000000e+00 0.00000000e+00 1.28590000e+01
1.28300000e+01 0.00000000e+00 0.00000000e+00 0.00000000e+00 1.28300000e+01 0.00000000e+00 0.00000000e+00 0.00000000e+00 1.28300000e+01
1.27160000e+01 0.00000000e+00 0.00000000e+00 0.00000000e+00 1.27160000e+01 0.00000000e+00 0.00000000e+00 0.00000000e+00 1.27160000e+01
1.27960000e+01 0.00000000e+00 0.00000000e+00 0.00000000e+00 1.27960000e+01 0.00000000e+00 0.00000000e+00 0.00000000e+00 1.27960000e+01
1.27770000e+01 0.00000000e+00 0.00000000e+00 0.00000000e+00 1.27770000e+01 0.00000000e+00 0.00000000e+00 0.00000000e+00 1.27770000e+01
1.27800000e+01 0.00000000e+00 0.00000000e+00 0.00000000e+00 1.27800000e+01 0.00000000e+00 0.00000000e+00 0.00000000e+00 1.27800000e+01
1.27110000e+01 0.00000000e+00 0.00000000e+00 0.00000000e+00 1.27110000e+01 0.00000000e+00 0.00000000e+00 0.00000000e+00 1.27110000e+01
1.27340000e+01 0.00000000e+00 0.00000000e+00 0.00000000e+00 1.27340000e+01 0.00000000e+00 0.00000000e+00 0.00000000e+00 1.27340000e+01
1.27840000e+01 0.00000000e+00 0.00000000e+00 0.00000000e+00 1.27840000e+01 0.00000000e+00 0.00000000e+00 0.00000000e+00 1.27840000e+01
1.27850000e+01 0.00000000e+00 0.00000000e+00 0.00000000e+00 1.27850000e+01 0.00000000e+00 0.00000000e+00 0.00000000e+00 1.27850000e+01
1.28410000e+01 0.00000000e+00 0.00000000e+00 0.00000000e+00 1.28410000e+01 0.00000000e+00 0.00000000e+00 0.00000000e+00 1.28410000e+01
1.28010000e+01 0.00000000e+00 0.00000000e+00 0.00000000e+00 1.28010000e+01 0.00000000e+00 0.00000000e+00 0.00000000e+00 1.28010000e+01
1.29280000e+01 0.00000000e+00 0.00000000e+00 0.00000000e+00 1.29280000e+01 0.00000000e+00 0.00000000e+00 0.00000000e+00 1.29280000e+01
1.27550000e+01 0.00000000e+00 0.00000000e+00 0.00000000e+00 1.27550000e+01 0.00000000e+00 0.00000000e+00 0.00000000e+00 1.27550000e+01
1.30900000e+01 0.00000000e+00 0.00000000e+00 0.00000000e+00 1.30900000e+01 0.00000000e+00 0.00000000e+00 0.00000000e+00 1.30900000e+01
1.30060000e+01 0.00000000e+00 0.00000000e+00 0.00000000e+00 1.30060000e+01 0.00000000e+00 0.00000000e+00 0.00000000e+00 1.30060000e+01
1.30020000e+01 0.00000000e+00 0.00000000e+00 0.00000000e+00 1.30020000e+01 0.00000000e+00 0.00000000e+00 0.00000000e+00 1.30020000e+01
1.28330000e+01 0.00000000e+00 0.00000000e+00 0.00000000e+00 1.28330000e+01 0.00000000e+00 0.00000000e+00 0.00000000e+00 1.28330000e+01
1.28950000e+01 0.00000000e+00 0.00000000e+00 0.00000000e+00 1.28950000e+01 0.00000000e+00 0.00000000e+00 0.00000000e+00 1.28950000e+01
1.27040000e+01 0.00000000e+00 0.00000000e+00 0.00000000e+00 1.27040000e+01 0.00000000e+00 0.00000000e+00 0.00000000e+00 1.27040000e+01
1.27720000e+01 0.00000000e+00 0.00000000e+00 0.00000000e+00 1.27720000e+01 0.00000000e+00 0.00000000e+00 0.00000000e+00 1.27720000e+01
1.27840000e+01 0.00000000e+00 0.00000000e+00 0.00000000e+00 1.27840000e+01 0.00000000e+00 0.00000000e+00 0.00000000e+00 1.27840000e+01
1.28050000e+01 0.00000000e+00 0.00000000e+00 0.00000000e+00 1.28050000e+01 0.00000000e+00 0.00000000e+00 0.00000000e+00 1.28050000e+01
1.28600000e+01 0.00000000e+00 0.00000000e+00 0.00000000e+00 1.28600000e+01 0.00000000e+00 0.00000000e+00 0.00000000e+00 1.28600000e+01
1.30880000e+01 0.00000000e+00 0.00000000e+00 0.00000000e+00 1.30880000e+01 0.00000000e+00 0.00000000e+00 0.00000000e+00 1.30880000e+01
1.30410000e+01 0.00000000e+00 0.00000000e+00 0.00000000e+00 1.30410000e+01 0.00000000e+00 0.00000000e+00 0.00000000e+00 1.30410000e+01
1.26940000e+01 0.00000000e+00 0.00000000e+00 0.00000000e+00 1.26940000e+01 0.00000000e+00 0.00000000e+00 0.00000000e+00 1.26940000e+01
1.29810000e+01 0.00000000e+00 0.00000000e+00 0.00000000e+00 1.29810000e+01 0.00000000e+00 0.00000000e+00 0.00000000e+00 1.29810000e+01
1.28100000e+01 0.00000000e+00 0.00000000e+00 0.00000000e+00 1.28100000e+01 0.00000000e+00 0.00000000e+00 0.00000000e+00 1.28100000e+01
1.31940000e+01 0.00000000e+00 0.00000000e+00 0.00000000e+00 1.31940000e+01 0.00000000e+00 0.00000000e+00 0.00000000e+00 1.31940000e+01
1.27680000e+01 0.00000000e+00 0.00000000e+00 0.00000000e+00 1.27680000e+01 0.00000000e+00 0.00000000e+00 0.00000000e+00 1.27680000e+01
1.28250000e+01 0.00000000e+00 0.00000000e+00 0.00000000e+00 1.28250000e+01 0.00000000e+00 0.00000000e+00 0.00000000e+00 1.28250000e+01
1.29070000e+01 0.00000000e+00 0.00000000e+00 0.00000000e+00 1.29070000e+01 0.00000000e+00 0.00000000e+00 0.00000000e+00 1.29070000e+01
1.27620000e+01 0.00000000e+00 0.00000000e+00 0.00000000e+00 1.27620000e+01 0.00000000e+00 0.00000000e+00 0.00000000e+00 1.27620000e+01
1.31070000e+01 0.00000000e+00 0.00000000e+00 0.00000000e+00 1.31070000e+01 0.00000000e+00 0.00000000e+00 0.00000000e+00 1.31070000e+01
1.29340000e+01 0.00000000e+00 0.00000000e+00 0.00000000e+00 1.29340000e+01 0.00000000e+00 0.00000000e+00 0.00000000e+00 1.29340000e+01
1.27290000e+01 0.00000000e+00 0.00000000e+00 0.00000000e+00 1.27290000e+01 0.00000000e+00 0.00000000e+00 0.00000000e+00 1.27290000e+01
1.29070000e+01 0.00000000e+00 0.00000000e+00 0.00000000e+00 1.29070000e+01 0.00000000e+00 0.00000000e+00 0.00000000e+00 1.29070000e+01
1.31310000e+01 0.00000000e+00 0.00000000e+00 0.00000000e+00 1.31310000e+01 0.00000000e+00 0.00000000e+00 0.00000000e+00 1.31310000e+01
1.28990000e+01 0.00000000e+00 0.00000000e+00 0.00000000e+00 1.28990000e+01 0.00000000e+00 0.00000000e+00 0.00000000e+00 1.28990000e+01
1.27850000e+01 0.00000000e+00 0.00000000e+00 0.00000000e+00 1.27850000e+01 0.00000000e+00 0.00000000e+00 0.00000000e+00 1.27850000e+01
1.28330000e+01 0.00000000e+00 0.00000000e+00 0.00000000e+00 1.28330000e+01 0.00000000e+00 0.00000000e+00 0.00000000e+00 1.28330000e+01
1.28100000e+01 0.00000000e+00 0.00000000e+00 0.00000000e+00 1.28100000e+01 0.00000000e+00 0.00000000e+00 0.00000000e+00 1.28100000e+01
1.30950000e+01 0.00000000e+00 0.00000000e+00 0.00000000e+00 1.30950000e+01 0.00000000e+00 0.00000000e+00 0.00000000e+00 1.30950000e+01
1.29120000e+01 0.00000000e+00 0.00000000e+00 0.00000000e+00 1.29120000e+01 0.00000000e+00 0.00000000e+00 0.00000000e+00 1.29120000e+01
1.28030000e+01 0.00000000e+00 0.00000000e+00 0.00000000e+00 1.28030000e+01 0.00000000e+00 0.00000000e+00 0.00000000e+00 1.28030000e+01
1.29680000e+01 0.00000000e+00 0.00000000e+00 0.00000000e+00 1.29680000e+01 0.00000000e+00 0.00000000e+00 0.00000000e+00 1.29680000e+01
1.24400000e+01 0.00000000e+00 0.00000000e+00 0.00000000e+00 1.24400000e+01 0.00000000e+00 0.00000000e+00 0.00000000e+00 1.24400000e+01
1.30080000e+01 0.00000000e+00 0.00000000e+00 0.00000000e+00 1.30080000e+01 0.00000000e+00 0.00000000e+00 0.00000000e+00 1.30080000e+01
1.25880000e+01 0.00000000e+00 0.00000000e+00 0.00000000e+00 1.25880000e+01 0.00000000e+00 0.00000000e+00 0.00000000e+00 1.25880000e+01
1.30020000e+01 0.00000000e+00 0.00000000e+00 0.00000000e+00 1.30020000e+01 0.00000000e+00 0.00000000e+00 0.00000000e+00 1.30020000e+01
1.28630000e+01 0.00000000e+00 0.00000000e+00 0.00000000e+00 1.28630000e+01 0.00000000e+00 0.00000000e+00 0.00000000e+00 1.28630000e+01
1.30530000e+01 0.00000000e+00 0.00000000e+00 0.00000000e+00 1.30530000e+01 0.00000000e+00 0.00000000e+00 0.00000000e+00 1.30530000e+01
1.28540000e+01 0.00000000e+00 0.00000000e+00 0.00000000e+00 1.28540000e+01 0.00000000e+00 0.00000000e+00 0.00000000e+00 1.28540000e+01
1.28750000e+01 0.00000000e+00 0.00000000e+00 0.00000000e+00 1.28750000e+01 0.00000000e+00 0.00000000e+00 0.00000000e+00 1.28750000e+01
1.29110000e+01 0.00000000e+00 0.00000000e+00 0.00000000e+00 1.29110000e+01 0.00000000e+00 0.00000000e+00 0.00000000e+00 1.29110000e+01
1.25390000e+01 0.00000000e+00 0.00000000e+00 0.00000000e+00 1.25390000e+01 0.00000000e+00 0.00000000e+00 0.00000000e+00 1.25390000e+01
1.29810000e+01 0.00000000e+00 0.00000000e+00 0.00000000e+00 1.29810000e+01 0.00000000e+00 0.00000000e+00 0.00000000e+00 1.29810000e+01
1.31450000e+01 0.00000000e+00 0.00000000e+00 0.00000000e+00 1.31450000e+01 0.00000000e+00 0.00000000e+00 0.00000000e+00 1.31450000e+01
1.29940000e+01 0.00000000e+00 0.00000000e+00 0.00000000e+00 1.29940000e+01 0.00000000e+00 0.00000000e+00 0.00000000e+00 1.29940000e+01
1.27120000e+01 0.00000000e+00 0.00000000e+00 0.00000000e+00 1.27120000e+01 0.00000000e+00 0.00000000e+00 0.00000000e+00 1.27120000e+01
1.30920000e+01 0.00000000e+00 0.00000000e+00 0.00000000e+00 1.30920000e+01 0.00000000e+00 0.00000000e+00 0.00000000e+00 1.30920000e+01
1.28330000e+01 0.00000000e+00 0.00000000e+00 0.00000000e+00 1.28330000e+01 0.00000000e+00 0.00000000e+00 0.00000000e+00 1.28330000e+01
1.28760000e+01 0.00000000e+00 0.00000000e+00 0.00000000e+00 1.28760000e+01 0.00000000e+00 0.00000000e+00 0.00000000e+00 1.28760000e+01
1.26960000e+01 0.00000000e+00 0.00000000e+00 0.00000000e+00 1.26960000e+01 0.00000000e+00 0.00000000e+00 0.00000000e+00 1.26960000e+01
1.27840000e+01 0.00000000e+00 0.00000000e+00 0.00000000e+00 1.27840000e+01 0.00000000e+00 0.00000000e+00 0.00000000e+00 1.27840000e+01
1.30750000e+01 0.00000000e+00 0.00000000e+00 0.00000000e+00 1.30750000e+01 0.00000000e+00 0.00000000e+00 0.00000000e+00 1.30750000e+01
1.29980000e+01 0.00000000e+00 0.00000000e+00 0.00000000e+00 1.29980000e+01 0.00000000e+00 0.00000000e+00 0.00000000e+00 1.29980000e+01
1.28780000e+01 0.00000000e+00 0.00000000e+00 0.00000000e+00 1.28780000e+01 0.00000000e+00 0.00000000e+00 0.00000000e+00 1.28780000e+01
1.28460000e+01 0.00000000e+00 0.00000000e+00 0.00000000e+00 1.28460000e+01 0.00000000e+00 0.00000000e+00 0.00000000e+00 1.28460000e+01
1.28510000e+01 0.00000000e+00 0.00000000e+00 0.00000000e+00 1.28510000e+01 0.00000000e+00 0.00000000e+00 0.00000000e+00 1.28510000e+01
1.25740000e+01 0.00000000e+00 0.00000000e+00 0.00000000e+00 1.25740000e+01 0.00000000e+00 0.00000000e+00 0.00000000e+00 1.25740000e+01
1.29060000e+01 0.00000000e+00 0.00000000e+00 0.00000000e+00 1.29060000e+01 0.00000000e+00 0.00000000e+00 0.00000000e+00 1.29060000e+01
1.27320000e+01 0.00000000e+00 0.00000000e+00 0.00000000e+00 1.27320000e+01 0.00000000e+00 0.00000000e+00 0.00000000e+00 1.27320000e+01
1.26890000e+01 0.00000000e+00 0.00000000e+00 0.00000000e+00 1.26890000e+01 0.00000000e+00 0.00000000e+00 0.00000000e+00 1.26890000e+01
1.28100000e+01 0.00000000e+00 0.00000000e+00 0.00000000e+00 1.28100000e+01 0.00000000e+00 0.00000000e+00 0.00000000e+00 1.28100000e+01
1.26210000e+01 0.00000000e+00 0.00000000e+00 0.00000000e+00 1.26210000e+01 0.00000000e+00 0.00000000e+00 0.00000000e+00 1.26210000e+01
1.27890000e+01 0.00000000e+00 0.00000000e+00 0.00000000e+00 1.27890000e+01 0.00000000e+00 0.00000000e+00 0.00000000e+00 1.27890000e+01
1.27370000e+01 0.00000000e+00 0.00000000e+00 0.00000000e+00 1.27370000e+01 0.00000000e+00 0.00000000e+00 0.00000000e+00 1.27370000e+01
1.25990000e+01 0.00000000e+00 0.00000000e+00 0.00000000e+00 1.25990000e+01 0.00000000e+00 0.00000000e+00 0.00000000e+00 1.25990000e+01
1.29060000e+01 0.00000000e+00 0.00000000e+00 0.00000000e+00 1.29060000e+01 0.00000000e+00 0.00000000e+00 0.00000000e+00 1.29060000e+01
1.27320000e+01 0.00000000e+00 0.00000000e+00 0.00000000e+00 1.27320000e+01 0.00000000e+00 0.00000000e+00 0.00000000e+00 1.27320000e+01
1.26910000e+01 0.00000000e+00 0.00000000e+00 0.00000000e+00 1.26910000e+01 0.00000000e+00 0.00000000e+00 0.00000000e+00 1.26910000e+01
1.28740000e+01 0.00000000e+00 0.00000000e+00 0.00000000e+00 1.28740000e+01 0.00000000e+00 0.00000000e+00 0.00000000e+00 1.28740000e+01