-3.00229537e+04
-3.00208457e+04
-3.00262485e+04
-3.00247134e+04
-3.00216699e+04
-3.00260048e+04
-3.00271675e+04
-3.00259415e+04
-3.00276471e+04
-3.00270724e+04
-3.00250276e+04
-3.00258449e+04
-3.00272103e+04
-3.00260624e+04
-3.00261759e+04
-3.00266173e+04
-3.00293293e+04
-3.00262020e+04
-3.00269074e+04
-3.00269200e+04
-3.00232969e+04
-3.00279251e+04
-3.00278937e+04
-3.00254405e+04
-3.00230542e+04
-3.00267290e+04
-3.00275349e+04
-3.00268263e+04
-3.00306016e+04
-3.00260878e+04
-3.00279355e+04
-3.00265444e+04
-3.00247425e+04
-3.00262302e+04
-3.00287807e+04
-3.00272195e+04
-3.00255028e+04
-3.00266765e+04
-3.00209974e+04
-3.00259721e+04
-3.00262529e+04
-3.00231343e+04
-3.00217664e+04
-3.00227717e+04
-3.00279937e+04
-3.00239300e+04
-3.00269787e+04
-3.00262439e+04
-3.00272994e+04
-3.00234729e+04
-3.00249860e+04
-3.00262685e+04
-3.00264507e+04
-3.00232530e+04
-3.00283014e+04
-3.00277752e+04
-3.00252811e+04
-3.00260638e+04
-3.00255265e+04
-3.00254106e+04
-3.00241787e+04
-3.00283188e+04
-3.00234572e+04
-3.00230086e+04
-3.00260846e+04
-3.00248659e+04
-3.00248251e+04
-3.00262989e+04
-3.00251651e+04
-3.00265900e+04
-3.00243727e+04
-3.00238369e+04
-3.00254183e+04
-3.00215248e+04
-3.00230579e+04
-3.00215036e+04
-3.00229371e+04
-3.00252743e+04
-3.00252584e+04
-3.00262494e+04
-3.00252076e+04
-3.00233075e+04
-3.00231908e+04
-3.00218949e+04
-3.00253919e+04
-3.00250262e+04
-3.00229426e+04
-3.00250534e+04
-3.00263933e+04
-3.00257018e+04
-3.00227050e+04
-3.00256853e+04
-3.00245685e+04
-3.00231159e+04
-3.00219310e+04
-3.00229301e+04
-3.00207551e+04
-3.00204568e+04
-3.00263657e+04
-3.00227218e+04
-3.00271335e+04
-3.00217436e+04
-3.00226000e+04
-3.00232943e+04
-3.00245182e+04
-3.00204187e+04
-3.00229412e+04
-3.00232701e+04
-3.00244855e+04
-3.00225730e+04
-3.00240904e+04
-3.00212912e+04
-3.00253901e+04
-3.00237066e+04
-3.00174878e+04
-3.00261124e+04
-3.00206112e+04
-3.00237455e+04
-3.00202185e+04
-3.00209172e+04
-3.00211935e+04
-3.00191658e+04
-3.00237714e+04
-3.00202038e+04
-3.00203443e+04
-3.00221525e+04
-3.00260025e+04
-3.00187529e+04
-3.00253089e+04
-3.00227731e+04
-3.00206047e+04
-3.00256261e+04
-3.00180078e+04
-3.00234718e+04
-3.00204987e+04
-3.00207050e+04
-3.00234487e+04
-3.00220897e+04
-3.00219644e+04
-3.00229314e+04
-3.00193112e+04
-3.00201961e+04
-3.00221582e+04
-3.00232203e+04
-3.00250877e+04
-3.00223065e+04
-3.00230453e+04
-3.00217722e+04
-3.00233742e+04
-3.00256669e+04
-3.00167593e+04
-3.00159163e+04
-3.00233422e+04
-3.00185703e+04
-3.00181717e+04
-3.00191398e+04
-3.00213129e+04
-3.00189366e+04
-3.00189178e+04
-3.00198461e+04
-3.00192814e+04
-3.00243939e+04
-3.00195826e+04
-3.00198324e+04
-3.00220117e+04
-3.00220230e+04
-3.00224345e+04
-3.00221479e+04
-3.00199414e+04
-3.00209302e+04
-3.00214139e+04
-3.00255822e+04
-3.00198321e+04
-3.00219042e+04
-3.00200757e+04
-3.00216978e+04
-3.00227004e+04
-3.00229798e+04
-3.00196953e+04
-3.00197429e+04
-3.00187202e+04
-3.00225167e+04
-3.00188402e+04
-3.00149907e+04
-3.00216911e+04
-3.00197871e+04
-3.00203174e+04
-3.00209010e+04
-3.00217780e+04
-3.00241207e+04
-3.00225573e+04
-3.00178185e+04
-3.00229084e+04
-3.00228556e+04
-3.00177462e+04
-3.00221702e+04
-3.00222581e+04
-3.00219449e+04
-3.00237657e+04
-3.00225592e+04
-3.00203472e+04
-3.00242300e+04
-3.00234447e+04
-3.00185421e+04
-3.00222368e+04
-3.00217632e+04
-3.00258421e+04
-3.00284323e+04
-3.00289009e+04
-3.00266400e+04
-3.00256810e+04
-3.00301995e+04
-3.00275790e+04
-3.00260530e+04
-3.00215686e+04
-3.00275997e+04
-3.00244441e+04
-3.00250102e+04
-3.00287121e+04
-3.00282699e+04
-3.00302371e+04
-3.00298064e+04
-3.00272711e+04
-3.00220374e+04
-3.00217981e+04
-3.00278988e+04
-3.00267733e+04
-3.00243607e+04
-3.00277566e+04
-3.00283178e+04
-3.00266532e+04
-3.00263376e+04
-3.00246241e+04
-3.00274700e+04
-3.00308185e+04
-3.00279740e+04
-3.00275576e+04
-3.00250519e+04
-3.00261078e+04
-3.00274471e+04
-3.00251092e+04
-3.00259128e+04
-3.00276670e+04
-3.00238894e+04
-3.00264003e+04
-3.00251278e+04
-3.00247785e+04
-3.00247351e+04
-3.00253743e+04
-3.00252307e+04
-3.00259880e+04
-3.00248409e+04
-3.00235314e+04
-3.00221205e+04
-3.00234613e+04
-3.00230084e+04
-3.00283233e+04
-3.00238808e+04
-3.00240087e+04
-3.00209105e+04
-3.00198215e+04
-3.00268483e+04
-3.00239728e+04
-3.00239960e+04
-3.00238274e+04
-3.00248172e+04
-3.00264388e+04
-3.00305799e+04
-3.00245392e+04
-3.00260062e+04
-3.00266090e+04
-3.00282049e+04
-3.00263448e+04
-3.00225467e+04
-3.00270479e+04
-3.00261271e+04
-3.00245362e+04
-3.00206960e+04
-3.00257177e+04
-3.00277268e+04
-3.00254129e+04
-3.00267891e+04
-3.00232298e+04
-3.00252137e+04
-3.00231331e+04
-3.00250134e+04
-3.00263414e+04
-3.00242386e+04
-3.00236369e+04
-3.00215137e+04
-3.00229052e+04
-3.00259821e+04
-3.00248033e+04
-3.00253920e+04
-3.00242432e+04
-3.00230990e+04
-3.00230627e+04
-3.00253943e+04
-3.00248399e+04
-3.00286856e+04
-3.00252050e+04
-3.00263035e+04
-3.00217901e+04
-3.00270198e+04
-3.00266985e+04
-3.00251230e+04
-3.00266522e+04
-3.00254744e+04
-3.00235891e+04
-3.00239079e+04
-3.00192038e+04
-3.00200829e+04
-3.00253460e+04
-3.00263031e+04
-3.00250779e+04
-3.00264606e+04
-3.00230924e+04
-3.00198586e+04
-3.00245612e+04
-3.00234733e+04
-3.00226735e+04
-3.00256675e+04
-3.00238443e+04
-3.00214977e+04
-3.00237997e+04
-3.00200470e+04
-3.00206919e+04
-3.00229871e+04
-3.00212915e+04
-3.00206233e+04
-3.00266782e+04
-3.00296719e+04
-3.00242606e+04
-3.00224458e+04
-3.00187677e+04
-3.00202091e+04
-3.00244609e+04
-3.00217505e+04
-3.00236946e+04
-3.00267811e+04
-3.00243972e+04
-3.00247489e+04
-3.00213556e+04
-3.00184984e+04
-3.00226308e+04
-3.00225479e+04
-3.00196495e+04
-3.00226283e+04
-3.00261100e+04
-3.00206194e+04
-3.00222630e+04
-3.00208535e+04
-3.00247940e+04
-3.00247877e+04
-3.00220090e+04
-3.00259482e+04
-3.00233633e+04
-3.00186285e+04
-3.00215615e+04
-3.00187142e+04
-3.00204246e+04
-3.00221728e+04
-3.00227768e+04
-3.00251370e+04
-3.00212559e+04
-3.00207023e+04
-3.00226466e+04
-3.00216632e+04
-3.00194415e+04
-3.00184958e+04
-3.00201907e+04
-3.00208918e+04
-3.00158739e+04
-3.00196478e+04
-3.00184974e+04
-3.00193392e+04
-3.00165167e+04
-3.00194373e+04
-3.00221018e+04
-3.00198548e+04
-3.00153784e+04
-3.00226951e+04
-3.00182306e+04
-3.00174005e+04
-3.00206575e+04
-3.00227757e+04
-3.00237172e+04
-3.00233686e+04
-3.00176473e+04
-3.00215456e+04
-3.00188679e+04
-3.00227588e+04
-3.00245410e+04
-3.00242391e+04
-3.00191835e+04
-3.00219415e+04
-3.00207740e+04
-3.00199892e+04
-3.00216829e+04
-3.00214372e+04
-3.00211592e+04
-3.00200605e+04
-3.00242541e+04
-3.00188534e+04
-3.00185417e+04
-3.00197512e+04
-3.00238475e+04
-3.00283073e+04
-3.00261480e+04
-3.00276484e+04
-3.00267706e+04
-3.00304409e+04
-3.00237887e+04
-3.00304264e+04
-3.00281199e+04
-3.00272122e+04
-3.00231432e+04
-3.00271060e+04
-3.00257527e+04
-3.00284827e+04
-3.00251099e+04
-3.00287533e+04
-3.00289787e+04
-3.00247013e+04
-3.00264385e+04
-3.00282265e+04
-3.00286155e+04
-3.00241718e+04
-3.00249530e+04
-3.00271324e+04
-3.00238012e+04
-3.00253330e+04
-3.00270212e+04
-3.00270548e+04
-3.00296413e+04
-3.00269562e+04
-3.00238876e+04
-3.00271510e+04
-3.00243820e+04
-3.00284724e+04
-3.00260153e+04
-3.00255277e+04
-3.00284524e+04
-3.00247689e+04
-3.00251218e+04
-3.00202763e+04
-3.00233970e+04
-3.00255557e+04
-3.00263705e+04
-3.00244376e+04
-3.00232947e+04
-3.00265460e+04
-3.00244426e+04
-3.00176607e+04
-3.00268886e+04
-3.00275788e+04
-3.00280713e+04
-3.00238659e+04
-3.00259278e+04
-3.00264767e+04
-3.00255081e+04
-3.00249803e+04
-3.00259773e+04
-3.00224874e+04
-3.00197633e+04
-3.00259330e+04
-3.00230917e+04
-3.00274708e+04
-3.00246206e+04
-3.00255741e+04
-3.00261185e+04
-3.00247920e+04
-3.00263951e+04
-3.00271588e+04
-3.00231648e+04
-3.00206279e+04
-3.00298778e+04
-3.00232809e+04
-3.00232462e+04
-3.00255016e+04
-3.00223879e+04
-3.00196815e+04
-3.00204997e+04
-3.00186085e+04
-3.00216058e+04
-3.00264706e+04
-3.00235423e+04
-3.00248520e+04
-3.00221064e+04
-3.00200759e+04
-3.00240545e+04
-3.00227095e+04
-3.00237823e+04
-3.00219653e+04
-3.00226273e+04
-3.00190748e+04
-3.00221013e+04
-3.00200571e+04
-3.00206806e+04
-3.00225331e+04
-3.00240618e+04
-3.00175241e+04
-3.00228796e+04
-3.00213846e+04
-3.00195774e+04
-3.00206888e+04
-3.00181613e+04
-3.00217447e+04
-3.00191464e+04
-3.00221487e+04
-3.00237984e+04
-3.00190983e+04
-3.00238511e+04
-3.00226190e+04
-3.00189535e+04
-3.00195279e+04
-3.00242122e+04
-3.00225434e+04
-3.00216575e+04
-3.00266331e+04
-3.00254616e+04
-3.00242449e+04
-3.00262545e+04
-3.00263414e+04
-3.00264334e+04
-3.00248983e+04
-3.00232054e+04
-3.00239301e+04
-3.00304784e+04
-3.00235311e+04
-3.00283339e+04
-3.00250178e+04
-3.00302765e+04
-3.00262627e+04
-3.00249152e+04
-3.00229222e+04
-3.00264808e+04
-3.00309511e+04
-3.00233063e+04
-3.00294733e+04
-3.00269140e+04
-3.00262938e+04
-3.00258531e+04
-3.00260626e+04
-3.00273191e+04
-3.00246758e+04
-3.00256948e+04
-3.00283074e+04
-3.00278222e+04
-3.00271582e+04
-3.00233776e+04
-3.00243038e+04
-3.00282286e+04
-3.00251689e+04
-3.00232056e+04
-3.00206197e+04
-3.00227610e+04
-3.00215456e+04
-3.00219904e+04
-3.00254393e+04
-3.00220345e+04
-3.00211615e+04
-3.00252841e+04
-3.00249174e+04
-3.00236998e+04
-3.00210833e+04
-3.00274328e+04
-3.00263505e+04
-3.00242806e+04
-3.00222880e+04
-3.00216000e+04
-3.00258144e+04
-3.00249901e+04
-3.00222867e+04
-3.00193695e+04
-3.00246517e+04
-3.00226513e+04
-3.00217950e+04
-3.00202970e+04
-3.00238567e+04
-3.00221570e+04
-3.00205820e+04
-3.00230872e+04
-3.00233925e+04
-3.00202061e+04
-3.00229575e+04
-3.00201747e+04
-3.00219916e+04
-3.00231683e+04
-3.00212644e+04
-3.00188329e+04
-3.00190954e+04
-3.00215902e+04
-3.00207733e+04
-3.00201860e+04
-3.00174512e+04
-3.00224760e+04
-3.00214266e+04
-3.00250863e+04
-3.00203989e+04
-3.00228844e+04
-3.00266654e+04
-3.00227829e+04
-3.00229097e+04
-3.00198047e+04
-3.00224519e+04
-3.00194904e+04
-3.00222375e+04
-3.00186456e+04
-3.00211703e+04
-3.00259236e+04
-3.00223505e+04
-3.00248654e+04
-3.00256746e+04
-3.00278851e+04
-3.00250121e+04
-3.00256209e+04
-3.00248788e+04
-3.00277235e+04
-3.00240843e+04
-3.00271954e+04
-3.00250629e+04
-3.00206941e+04
-3.00252070e+04
-3.00272750e+04
-3.00253115e+04
-3.00275670e+04
-3.00251545e+04
-3.00240675e+04
-3.00218985e+04
-3.00253339e+04
-3.00276749e+04
-3.00255682e+04
-3.00280895e+04
-3.00265973e+04
-3.00266600e+04
-3.00267140e+04
-3.00300284e+04
-3.00228483e+04
-3.00240762e+04
-3.00254364e+04
-3.00227576e+04
-3.00241534e+04
-3.00252562e+04
-3.00240424e+04
-3.00238943e+04
-3.00239291e+04
-3.00252396e+04
-3.00244299e+04
-3.00255736e+04
-3.00226408e+04
-3.00202351e+04
-3.00240895e+04
-3.00210112e+04
-3.00224954e+04
-3.00220176e+04
-3.00210908e+04
-3.00226157e+04
-3.00242704e+04
-3.00240561e+04
-3.00215421e+04
-3.00256783e+04
-3.00224389e+04
-3.00229275e+04
-3.00210942e+04
-3.00257284e+04
-3.00225914e+04
-3.00213964e+04
-3.00229400e+04
-3.00213327e+04
-3.00214325e+04
-3.00186870e+04
-3.00208333e+04
-3.00204417e+04
-3.00216375e+04
-3.00243851e+04
-3.00245240e+04
-3.00215828e+04
-3.00227035e+04
-3.00191440e+04
-3.00212678e+04
-3.00163387e+04
-3.00187522e+04
-3.00247839e+04
-3.00178505e+04
-3.00251917e+04
-3.00270615e+04
-3.00270741e+04
-3.00248966e+04
-3.00271812e+04
-3.00267347e+04
-3.00279572e+04
-3.00261764e+04
-3.00260443e+04
-3.00273267e+04
-3.00256156e+04
-3.00272550e+04
-3.00288298e+04
-3.00252727e+04
-3.00277556e+04
-3.00297788e+04
-3.00252702e+04
-3.00293720e+04
-3.00275265e+04
-3.00237945e+04
-3.00264463e+04
-3.00265669e+04
-3.00228272e+04
-3.00265508e+04
-3.00242996e+04
-3.00255817e+04
-3.00245297e+04
-3.00256311e+04
-3.00260586e+04
-3.00219638e+04
-3.00269443e+04
-3.00253590e+04
-3.00232148e+04
-3.00241022e+04
-3.00266580e+04
-3.00246215e+04
-3.00224134e+04
-3.00228540e+04
-3.00270796e+04
-3.00244166e+04
-3.00248081e+04
-3.00202107e+04
-3.00258933e+04
-3.00205714e+04
-3.00223359e+04
-3.00239844e+04
-3.00244463e+04
-3.00264665e+04
-3.00218496e+04
-3.00233672e+04
-3.00212351e+04
-3.00236322e+04
-3.00163148e+04
-3.00239634e+04
-3.00219803e+04
-3.00212403e+04
-3.00198359e+04
-3.00231758e+04
-3.00206184e+04
-3.00228738e+04
-3.00214421e+04
-3.00191597e+04
-3.00211791e+04
-3.00222900e+04
